
     Program PWSCF v.6.4.1 starts on 14Jan2021 at 11:59:14 

     This program is part of the open-source Quantum ESPRESSO suite
     for quantum simulation of materials; please cite
         "P. Giannozzi et al., J. Phys.:Condens. Matter 21 395502 (2009);
         "P. Giannozzi et al., J. Phys.:Condens. Matter 29 465901 (2017);
          URL http://www.quantum-espresso.org", 
     in publications or presentations arising from this work. More details at
     http://www.quantum-espresso.org/quote

     Parallel version (MPI), running on    16 processors

     MPI processes distributed on     1 nodes
     R & G space division:  proc/nbgrp/npool/nimage =      16
     Waiting for input...
     Reading input from standard input
Warning: card &IONS ignored
Warning: card     ION_DYNAMICS="BFGS" ignored
Warning: card / ignored

     Current dimensions of program PWSCF are:
     Max number of different atomic species (ntypx) = 10
     Max number of k-points (npk) =  40000
     Max angular momentum in pseudopotentials (lmaxx) =  3

     IMPORTANT: XC functional enforced from input :
     Exchange-correlation      = HSE ( 1  4 12  4 0 0)
     EXX-fraction              =        0.25
     Using LIBXC version       =    4   3   4
     Any further DFT definition will be discarded
     Please, verify this is what you really want

               file N.pbe-n-kjpaw_psl.1.0.0.UPF: wavefunction(s)  2S renormalized

     gamma-point specific algorithms are used
     Message from routine setup :
     BEWARE: nonlinear core correction is not consistent with hybrid XC

     Subspace diagonalization in iterative solution of the eigenvalue problem:
     one sub-group per band group will be used
     scalapack distributed-memory algorithm (size of sub-group:  2*  2 procs)

     EXX: grid of k+q points same as grid of k-points
 
     Parallelization info
     --------------------
     sticks:   dense  smooth     PW     G-vecs:    dense   smooth      PW
     Min          18      18      4                 2274     2274     272
     Max          20      20      6                 2388     2388     330
     Sum         313     313     85                37603    37603    4827
 


     bravais-lattice index     =            4
     lattice parameter (alat)  =       4.8566  a.u.
     unit-cell volume          =     792.5577 (a.u.)^3
     number of atoms/cell      =            2
     number of atomic types    =            2
     number of electrons       =         8.00
     number of Kohn-Sham states=            5
     kinetic-energy cutoff     =      50.0000  Ry
     charge density cutoff     =     200.0000  Ry
     cutoff for Fock operator  =     200.0000  Ry
     convergence threshold     =      1.0E-08
     mixing beta               =       0.3100
     number of iterations used =            8  plain     mixing
     Exchange-correlation      = HSE ( 1  4 12  4 0 0)
     EXX-fraction              =        0.25
     Using LIBXC version       =    4   3   4

     celldm(1)=   4.856596  celldm(2)=   0.000000  celldm(3)=   7.989220
     celldm(4)=   0.000000  celldm(5)=   0.000000  celldm(6)=   0.000000

     crystal axes: (cart. coord. in units of alat)
               a(1) = (   1.000000   0.000000   0.000000 )  
               a(2) = (  -0.500000   0.866025   0.000000 )  
               a(3) = (   0.000000   0.000000   7.989220 )  

     reciprocal axes: (cart. coord. in units 2 pi/alat)
               b(1) = (  1.000000  0.577350  0.000000 )  
               b(2) = (  0.000000  1.154701  0.000000 )  
               b(3) = (  0.000000  0.000000  0.125169 )  


     PseudoPot. # 1 for B  read from file:
     ./pseudo/B.pbe-n-kjpaw_psl.1.0.0.UPF
     MD5 check sum: 8c825a5969375aca5c2c6ad5945b3059
     Pseudo is Projector augmented-wave + core cor, Zval =  3.0
     Generated using "atomic" code by A. Dal Corso v.6.3
     Shape of augmentation charge: PSQ
     Using radial grid of 1059 points,  4 beta functions with: 
                l(1) =   0
                l(2) =   0
                l(3) =   1
                l(4) =   1
     Q(r) pseudized with 0 coefficients 


     PseudoPot. # 2 for N  read from file:
     ./pseudo/N.pbe-n-kjpaw_psl.1.0.0.UPF
     MD5 check sum: 14c48229446f9f2d411169a3abcbc3fa
     Pseudo is Projector augmented-wave + core cor, Zval =  5.0
     Generated using "atomic" code by A. Dal Corso v.6.3
     Shape of augmentation charge: PSQ
     Using radial grid of 1085 points,  4 beta functions with: 
                l(1) =   0
                l(2) =   0
                l(3) =   1
                l(4) =   1
     Q(r) pseudized with 0 coefficients 


     atomic species   valence    mass     pseudopotential
        B              3.00    10.00000     B ( 1.00)
        N              5.00    14.00000     N ( 1.00)

     12 Sym. Ops. (no inversion) found


                                    s                        frac. trans.

      isym =  1     identity                                     

 cryst.   s( 1) = (     1          0          0      )
                  (     0          1          0      )
                  (     0          0          1      )

 cart.    s( 1) = (  1.0000000  0.0000000  0.0000000 )
                  (  0.0000000  1.0000000  0.0000000 )
                  (  0.0000000  0.0000000  1.0000000 )


      isym =  2     180 deg rotation - cart. axis [0,1,0]        

 cryst.   s( 2) = (    -1          0          0      )
                  (     1          1          0      )
                  (     0          0         -1      )

 cart.    s( 2) = ( -1.0000000  0.0000000  0.0000000 )
                  (  0.0000000  1.0000000  0.0000000 )
                  (  0.0000000  0.0000000 -1.0000000 )


      isym =  3     120 deg rotation - cryst. axis [0,0,1]       

 cryst.   s( 3) = (     0          1          0      )
                  (    -1         -1          0      )
                  (     0          0          1      )

 cart.    s( 3) = ( -0.5000000 -0.8660254  0.0000000 )
                  (  0.8660254 -0.5000000  0.0000000 )
                  (  0.0000000  0.0000000  1.0000000 )


      isym =  4     120 deg rotation - cryst. axis [0,0,-1]      

 cryst.   s( 4) = (    -1         -1          0      )
                  (     1          0          0      )
                  (     0          0          1      )

 cart.    s( 4) = ( -0.5000000  0.8660254  0.0000000 )
                  ( -0.8660254 -0.5000000  0.0000000 )
                  (  0.0000000  0.0000000  1.0000000 )


      isym =  5     180 deg rotation - cryst. axis [1,-1,0]      

 cryst.   s( 5) = (     0         -1          0      )
                  (    -1          0          0      )
                  (     0          0         -1      )

 cart.    s( 5) = (  0.5000000 -0.8660254  0.0000000 )
                  ( -0.8660254 -0.5000000  0.0000000 )
                  (  0.0000000  0.0000000 -1.0000000 )


      isym =  6     180 deg rotation - cryst. axis [2,1,0]       

 cryst.   s( 6) = (     1          1          0      )
                  (     0         -1          0      )
                  (     0          0         -1      )

 cart.    s( 6) = (  0.5000000  0.8660254  0.0000000 )
                  (  0.8660254 -0.5000000  0.0000000 )
                  (  0.0000000  0.0000000 -1.0000000 )


      isym =  7     inv. 180 deg rotation - cart. axis [0,0,1]   

 cryst.   s( 7) = (     1          0          0      )
                  (     0          1          0      )
                  (     0          0         -1      )

 cart.    s( 7) = (  1.0000000  0.0000000  0.0000000 )
                  (  0.0000000  1.0000000  0.0000000 )
                  (  0.0000000  0.0000000 -1.0000000 )


      isym =  8     inv. 180 deg rotation - cart. axis [1,0,0]   

 cryst.   s( 8) = (    -1          0          0      )
                  (     1          1          0      )
                  (     0          0          1      )

 cart.    s( 8) = ( -1.0000000  0.0000000  0.0000000 )
                  (  0.0000000  1.0000000  0.0000000 )
                  (  0.0000000  0.0000000  1.0000000 )


      isym =  9     inv.  60 deg rotation - cryst. axis [0,0,1]  

 cryst.   s( 9) = (    -1         -1          0      )
                  (     1          0          0      )
                  (     0          0         -1      )

 cart.    s( 9) = ( -0.5000000  0.8660254  0.0000000 )
                  ( -0.8660254 -0.5000000  0.0000000 )
                  (  0.0000000  0.0000000 -1.0000000 )


      isym = 10     inv.  60 deg rotation - cryst. axis [0,0,-1] 

 cryst.   s(10) = (     0          1          0      )
                  (    -1         -1          0      )
                  (     0          0         -1      )

 cart.    s(10) = ( -0.5000000 -0.8660254  0.0000000 )
                  (  0.8660254 -0.5000000  0.0000000 )
                  (  0.0000000  0.0000000 -1.0000000 )


      isym = 11     inv. 180 deg rotation - cryst. axis [0,1,0]  

 cryst.   s(11) = (     1          1          0      )
                  (     0         -1          0      )
                  (     0          0          1      )

 cart.    s(11) = (  0.5000000  0.8660254  0.0000000 )
                  (  0.8660254 -0.5000000  0.0000000 )
                  (  0.0000000  0.0000000  1.0000000 )


      isym = 12     inv. 180 deg rotation - cryst. axis [1,1,0]  

 cryst.   s(12) = (     0         -1          0      )
                  (    -1          0          0      )
                  (     0          0          1      )

 cart.    s(12) = (  0.5000000 -0.8660254  0.0000000 )
                  ( -0.8660254 -0.5000000  0.0000000 )
                  (  0.0000000  0.0000000  1.0000000 )


     point group D_3h (-62m)
     there are  6 classes
     the character table:

       E     2C3   3C2   s_h   2S3   3s_v 
A'_1   1.00  1.00  1.00  1.00  1.00  1.00
A'_2   1.00  1.00 -1.00  1.00  1.00 -1.00
E'     2.00 -1.00  0.00  2.00 -1.00  0.00
A''1   1.00  1.00  1.00 -1.00 -1.00 -1.00
A''2   1.00  1.00 -1.00 -1.00 -1.00  1.00
E''    2.00 -1.00  0.00 -2.00  1.00  0.00

     the symmetry operations in each class and the name of the first element:

     E        1
          identity                                               
     2C3      3    4
          120 deg rotation - cryst. axis [0,0,1]                 
     3C2      2    6    5
          180 deg rotation - cart. axis [0,1,0]                  
     s_h      7
          inv. 180 deg rotation - cart. axis [0,0,1]             
     2S3      9   10
          inv.  60 deg rotation - cryst. axis [0,0,1]            
     3s_v     8   11   12
          inv. 180 deg rotation - cart. axis [1,0,0]             

   Cartesian axes

     site n.     atom                  positions (alat units)
         1           B   tau(   1) = (   0.5000000   0.2886751   0.0000000  )
         2           N   tau(   2) = (  -0.0000000   0.5773503   0.0000000  )

   Crystallographic axes

     site n.     atom                  positions (cryst. coord.)
         1           B   tau(   1) = (  0.6666667  0.3333333  0.0000000  )
         2           N   tau(   2) = (  0.3333333  0.6666667  0.0000000  )

     number of k points=     1  gaussian smearing, width (Ry)=  0.0100
                       cart. coord. in units 2pi/alat
        k(    1) = (   0.0000000   0.0000000   0.0000000), wk =   2.0000000

                       cryst. coord.
        k(    1) = (   0.0000000   0.0000000   0.0000000), wk =   2.0000000

     Dense  grid:    18802 G-vectors     FFT dimensions: (  24,  24, 180)

     Dynamical RAM for                 wfc:       0.01 MB

     Dynamical RAM for     wfc (w. buffer):       0.01 MB

     Dynamical RAM for                 EXX:       2.65 MB

     Dynamical RAM for           str. fact:       0.04 MB

     Dynamical RAM for           local pot:       0.00 MB

     Dynamical RAM for          nlocal pot:       0.04 MB

     Dynamical RAM for                qrad:       0.50 MB

     Dynamical RAM for          rho,v,vnew:       0.21 MB

     Dynamical RAM for               rhoin:       0.07 MB

     Dynamical RAM for            rho*nmix:       0.29 MB

     Dynamical RAM for           G-vectors:       0.08 MB

     Dynamical RAM for          h,s,v(r/c):       0.00 MB

     Dynamical RAM for          <psi|beta>:       0.00 MB

     Dynamical RAM for                 psi:       0.04 MB

     Dynamical RAM for                hpsi:       0.04 MB

     Dynamical RAM for                spsi:       0.04 MB

     Dynamical RAM for      wfcinit/wfcrot:       0.04 MB

     Dynamical RAM for           addusdens:       0.80 MB

     Dynamical RAM for          addusforce:       0.87 MB

     Dynamical RAM for         addusstress:       0.91 MB

     Estimated static dynamical RAM per process >       4.20 MB

     Estimated max dynamical RAM per process >       5.11 MB

     Estimated total dynamical RAM >      81.79 MB

     Check: negative core charge=   -0.000009

     Initial potential from superposition of free atoms

     starting charge    7.99971, renormalised to    8.00000

     negative rho (up, down):  6.100E-04 0.000E+00
     Starting wfcs are    8 randomized atomic wfcs

     total cpu time spent up to now is        1.6 secs

     Self-consistent Calculation

     iteration #  1     ecut=    50.00 Ry     beta= 0.31
     Davidson diagonalization with overlap
     ethr =  1.00E-02,  avg # of iterations =  3.0

     negative rho (up, down):  9.000E-04 0.000E+00

     total cpu time spent up to now is        1.7 secs

     total energy              =     -39.37734688 Ry
     Harris-Foulkes estimate   =     -39.59536634 Ry
     estimated scf accuracy    <       0.57916081 Ry

     iteration #  2     ecut=    50.00 Ry     beta= 0.31
     Davidson diagonalization with overlap
     ethr =  7.24E-03,  avg # of iterations =  2.0

     negative rho (up, down):  1.211E-03 0.000E+00

     total cpu time spent up to now is        1.9 secs

     total energy              =     -39.42139660 Ry
     Harris-Foulkes estimate   =     -39.44096269 Ry
     estimated scf accuracy    <       0.08226770 Ry

     iteration #  3     ecut=    50.00 Ry     beta= 0.31
     Davidson diagonalization with overlap
     ethr =  1.03E-03,  avg # of iterations =  3.0

     negative rho (up, down):  1.475E-03 0.000E+00

     total cpu time spent up to now is        2.0 secs

     total energy              =     -39.42459620 Ry
     Harris-Foulkes estimate   =     -39.43342034 Ry
     estimated scf accuracy    <       0.03126364 Ry

     iteration #  4     ecut=    50.00 Ry     beta= 0.31
     Davidson diagonalization with overlap
     ethr =  3.91E-04,  avg # of iterations =  2.0

     negative rho (up, down):  1.682E-03 0.000E+00

     total cpu time spent up to now is        2.1 secs

     total energy              =     -39.42805815 Ry
     Harris-Foulkes estimate   =     -39.42778112 Ry
     estimated scf accuracy    <       0.00373282 Ry

     iteration #  5     ecut=    50.00 Ry     beta= 0.31
     Davidson diagonalization with overlap
     ethr =  4.67E-05,  avg # of iterations =  3.0

     negative rho (up, down):  1.677E-03 0.000E+00

     total cpu time spent up to now is        2.3 secs

     total energy              =     -39.42822186 Ry
     Harris-Foulkes estimate   =     -39.42864181 Ry
     estimated scf accuracy    <       0.00156588 Ry

     iteration #  6     ecut=    50.00 Ry     beta= 0.31
     Davidson diagonalization with overlap
     ethr =  1.96E-05,  avg # of iterations =  1.0

     negative rho (up, down):  1.690E-03 0.000E+00

     total cpu time spent up to now is        2.4 secs

     total energy              =     -39.42784682 Ry
     Harris-Foulkes estimate   =     -39.42824692 Ry
     estimated scf accuracy    <       0.00079569 Ry

     iteration #  7     ecut=    50.00 Ry     beta= 0.31
     Davidson diagonalization with overlap
     ethr =  9.95E-06,  avg # of iterations =  3.0

     negative rho (up, down):  1.690E-03 0.000E+00

     total cpu time spent up to now is        2.5 secs

     total energy              =     -39.42801831 Ry
     Harris-Foulkes estimate   =     -39.42804853 Ry
     estimated scf accuracy    <       0.00009806 Ry

     iteration #  8     ecut=    50.00 Ry     beta= 0.31
     Davidson diagonalization with overlap
     ethr =  1.23E-06,  avg # of iterations =  1.0

     negative rho (up, down):  1.690E-03 0.000E+00

     total cpu time spent up to now is        2.7 secs

     total energy              =     -39.42800844 Ry
     Harris-Foulkes estimate   =     -39.42802394 Ry
     estimated scf accuracy    <       0.00003325 Ry

     iteration #  9     ecut=    50.00 Ry     beta= 0.31
     Davidson diagonalization with overlap
     ethr =  4.16E-07,  avg # of iterations =  2.0

     negative rho (up, down):  1.691E-03 0.000E+00

     total cpu time spent up to now is        2.8 secs

     total energy              =     -39.42802048 Ry
     Harris-Foulkes estimate   =     -39.42802024 Ry
     estimated scf accuracy    <       0.00000426 Ry

     iteration # 10     ecut=    50.00 Ry     beta= 0.31
     Davidson diagonalization with overlap
     ethr =  5.32E-08,  avg # of iterations =  1.0

     negative rho (up, down):  1.692E-03 0.000E+00

     total cpu time spent up to now is        2.9 secs

     total energy              =     -39.42802059 Ry
     Harris-Foulkes estimate   =     -39.42802073 Ry
     estimated scf accuracy    <       0.00000467 Ry

     iteration # 11     ecut=    50.00 Ry     beta= 0.31
     Davidson diagonalization with overlap
     ethr =  5.32E-08,  avg # of iterations =  1.0

     negative rho (up, down):  1.693E-03 0.000E+00

     total cpu time spent up to now is        3.0 secs

     total energy              =     -39.42801927 Ry
     Harris-Foulkes estimate   =     -39.42802062 Ry
     estimated scf accuracy    <       0.00000461 Ry

     iteration # 12     ecut=    50.00 Ry     beta= 0.31
     Davidson diagonalization with overlap
     ethr =  5.32E-08,  avg # of iterations =  1.0

     negative rho (up, down):  1.693E-03 0.000E+00

     total cpu time spent up to now is        3.1 secs

     total energy              =     -39.42801906 Ry
     Harris-Foulkes estimate   =     -39.42801943 Ry
     estimated scf accuracy    <       0.00000140 Ry

     iteration # 13     ecut=    50.00 Ry     beta= 0.31
     Davidson diagonalization with overlap
     ethr =  1.74E-08,  avg # of iterations =  2.0

     negative rho (up, down):  1.693E-03 0.000E+00

     total cpu time spent up to now is        3.2 secs

     total energy              =     -39.42801909 Ry
     Harris-Foulkes estimate   =     -39.42801918 Ry
     estimated scf accuracy    <       0.00000030 Ry

     iteration # 14     ecut=    50.00 Ry     beta= 0.31
     Davidson diagonalization with overlap
     ethr =  3.75E-09,  avg # of iterations =  2.0

     negative rho (up, down):  1.693E-03 0.000E+00

     total cpu time spent up to now is        3.3 secs

     total energy              =     -39.42801910 Ry
     Harris-Foulkes estimate   =     -39.42801912 Ry
     estimated scf accuracy    <       0.00000005 Ry

     iteration # 15     ecut=    50.00 Ry     beta= 0.31
     Davidson diagonalization with overlap
     ethr =  6.25E-10,  avg # of iterations =  2.0

     negative rho (up, down):  1.693E-03 0.000E+00

     total cpu time spent up to now is        3.4 secs

     End of self-consistent calculation

          k = 0.0000 0.0000 0.0000 (  2414 PWs)   bands (ev):

   -21.6010  -9.5168  -5.5910  -5.5910   0.1994

     occupation numbers 
     1.0000   1.0000   1.0000   1.0000   0.0000

     the Fermi energy is    -2.3216 ev

!    total energy              =     -39.42801911 Ry
     Harris-Foulkes estimate   =     -39.42801912 Ry
     estimated scf accuracy    <          9.0E-09 Ry

     convergence has been achieved in  15 iterations

     Using ACE for calculation of exact exchange

     EXX grid:    18802 G-vectors     FFT dimensions: (  24,  24, 180)

     negative rho (up, down):  1.693E-03 0.000E+00

     EXX: now go back to refine exchange calculation

     total cpu time spent up to now is        4.3 secs

     Self-consistent Calculation

     iteration #  1     ecut=    50.00 Ry     beta= 0.31
     Davidson diagonalization with overlap
     ethr =  6.25E-10,  avg # of iterations =  8.0

     negative rho (up, down):  1.727E-03 0.000E+00

     total cpu time spent up to now is        4.5 secs

     total energy              =     -36.14056263 Ry
     Harris-Foulkes estimate   =     -36.14087021 Ry
     estimated scf accuracy    <       0.00078577 Ry

     iteration #  2     ecut=    50.00 Ry     beta= 0.31
     Davidson diagonalization with overlap
     ethr =  9.82E-06,  avg # of iterations =  4.0

     negative rho (up, down):  1.737E-03 0.000E+00

     total cpu time spent up to now is        4.6 secs

     total energy              =     -35.96699832 Ry
     Harris-Foulkes estimate   =     -35.96737768 Ry
     estimated scf accuracy    <       0.00278445 Ry

     iteration #  3     ecut=    50.00 Ry     beta= 0.31
     Davidson diagonalization with overlap
     ethr =  9.82E-06,  avg # of iterations =  1.0

     negative rho (up, down):  1.813E-03 0.000E+00

     total cpu time spent up to now is        4.7 secs

     total energy              =     -35.96573141 Ry
     Harris-Foulkes estimate   =     -35.96701548 Ry
     estimated scf accuracy    <       0.00191909 Ry

     iteration #  4     ecut=    50.00 Ry     beta= 0.31
     Davidson diagonalization with overlap
     ethr =  9.82E-06,  avg # of iterations =  3.0

     negative rho (up, down):  1.866E-03 0.000E+00

     total cpu time spent up to now is        4.9 secs

     total energy              =     -35.96639563 Ry
     Harris-Foulkes estimate   =     -35.96630819 Ry
     estimated scf accuracy    <       0.00023914 Ry

     iteration #  5     ecut=    50.00 Ry     beta= 0.31
     Davidson diagonalization with overlap
     ethr =  2.99E-06,  avg # of iterations =  2.0

     negative rho (up, down):  1.845E-03 0.000E+00

     total cpu time spent up to now is        5.0 secs

     total energy              =     -35.96610663 Ry
     Harris-Foulkes estimate   =     -35.96642251 Ry
     estimated scf accuracy    <       0.00051965 Ry

     iteration #  6     ecut=    50.00 Ry     beta= 0.31
     Davidson diagonalization with overlap
     ethr =  2.99E-06,  avg # of iterations =  2.0

     negative rho (up, down):  1.848E-03 0.000E+00

     total cpu time spent up to now is        5.1 secs

     total energy              =     -35.96621880 Ry
     Harris-Foulkes estimate   =     -35.96621947 Ry
     estimated scf accuracy    <       0.00000190 Ry

     iteration #  7     ecut=    50.00 Ry     beta= 0.31
     Davidson diagonalization with overlap
     ethr =  2.38E-08,  avg # of iterations =  2.0

     negative rho (up, down):  1.848E-03 0.000E+00

     total cpu time spent up to now is        5.3 secs

     total energy              =     -35.96621966 Ry
     Harris-Foulkes estimate   =     -35.96621988 Ry
     estimated scf accuracy    <       0.00000083 Ry

     iteration #  8     ecut=    50.00 Ry     beta= 0.31
     Davidson diagonalization with overlap
     ethr =  1.04E-08,  avg # of iterations =  1.0

     negative rho (up, down):  1.848E-03 0.000E+00

     total cpu time spent up to now is        5.4 secs

     total energy              =     -35.96621943 Ry
     Harris-Foulkes estimate   =     -35.96621968 Ry
     estimated scf accuracy    <       0.00000045 Ry

     iteration #  9     ecut=    50.00 Ry     beta= 0.31
     Davidson diagonalization with overlap
     ethr =  5.69E-09,  avg # of iterations =  2.0

     negative rho (up, down):  1.848E-03 0.000E+00

     total cpu time spent up to now is        5.5 secs

     End of self-consistent calculation

          k = 0.0000 0.0000 0.0000 (  2414 PWs)   bands (ev):

   -23.6696 -10.6593  -7.3095  -7.3095   0.3984

     occupation numbers 
     1.0000   1.0000   1.0000   1.0000   0.0000

     the Fermi energy is    -5.4825 ev

!    total energy              =     -35.96621951 Ry
     Harris-Foulkes estimate   =     -35.96621951 Ry
     estimated scf accuracy    <          6.3E-09 Ry

     convergence has been achieved in   9 iterations

     Using ACE for calculation of exact exchange

     total energy              =     -35.96651719 Ry
     Harris-Foulkes estimate   =     -35.96651719 Ry
     est. exchange err (dexx)  =       0.00029769 Ry
     - averaged Fock potential =       2.93888257 Ry
     + Fock energy (ACE)       =      -1.46889803 Ry

     EXX: now go back to refine exchange calculation

     total cpu time spent up to now is        5.6 secs

     Self-consistent Calculation

     iteration #  1     ecut=    50.00 Ry     beta= 0.31
     Davidson diagonalization with overlap
     ethr =  5.69E-09,  avg # of iterations =  4.0

     negative rho (up, down):  1.848E-03 0.000E+00

     total cpu time spent up to now is        5.7 secs

     total energy              =     -35.96654463 Ry
     Harris-Foulkes estimate   =     -35.96654881 Ry
     estimated scf accuracy    <       0.00001134 Ry

     iteration #  2     ecut=    50.00 Ry     beta= 0.31
     Davidson diagonalization with overlap
     ethr =  1.42E-07,  avg # of iterations =  1.0

     negative rho (up, down):  1.848E-03 0.000E+00

     total cpu time spent up to now is        5.8 secs

     total energy              =     -35.96654303 Ry
     Harris-Foulkes estimate   =     -35.96654503 Ry
     estimated scf accuracy    <       0.00000349 Ry

     iteration #  3     ecut=    50.00 Ry     beta= 0.31
     Davidson diagonalization with overlap
     ethr =  4.37E-08,  avg # of iterations =  2.0

     negative rho (up, down):  1.848E-03 0.000E+00

     total cpu time spent up to now is        5.9 secs

     total energy              =     -35.96654331 Ry
     Harris-Foulkes estimate   =     -35.96654343 Ry
     estimated scf accuracy    <       0.00000022 Ry

     iteration #  4     ecut=    50.00 Ry     beta= 0.31
     Davidson diagonalization with overlap
     ethr =  2.69E-09,  avg # of iterations =  2.0

     negative rho (up, down):  1.848E-03 0.000E+00

     total cpu time spent up to now is        6.0 secs

     total energy              =     -35.96654336 Ry
     Harris-Foulkes estimate   =     -35.96654338 Ry
     estimated scf accuracy    <       0.00000007 Ry

     iteration #  5     ecut=    50.00 Ry     beta= 0.31
     Davidson diagonalization with overlap
     ethr =  8.86E-10,  avg # of iterations =  1.0

     negative rho (up, down):  1.848E-03 0.000E+00

     total cpu time spent up to now is        6.2 secs

     total energy              =     -35.96654335 Ry
     Harris-Foulkes estimate   =     -35.96654336 Ry
     estimated scf accuracy    <       0.00000002 Ry

     iteration #  6     ecut=    50.00 Ry     beta= 0.31
     Davidson diagonalization with overlap
     ethr =  2.88E-10,  avg # of iterations =  2.0

     negative rho (up, down):  1.848E-03 0.000E+00

     total cpu time spent up to now is        6.3 secs

     End of self-consistent calculation

          k = 0.0000 0.0000 0.0000 (  2414 PWs)   bands (ev):

   -23.6898 -10.6777  -7.3317  -7.3316   0.4018

     occupation numbers 
     1.0000   1.0000   1.0000   1.0000   0.0000

     the Fermi energy is    -5.4850 ev

!    total energy              =     -35.96654336 Ry
     Harris-Foulkes estimate   =     -35.96654336 Ry
     estimated scf accuracy    <          2.5E-09 Ry

     convergence has been achieved in   6 iterations

     Using ACE for calculation of exact exchange

     total energy              =     -35.96654669 Ry
     Harris-Foulkes estimate   =     -35.96654669 Ry
     est. exchange err (dexx)  =       0.00000333 Ry
     - averaged Fock potential =       2.93762724 Ry
     + Fock energy (ACE)       =      -1.46873254 Ry

     EXX: now go back to refine exchange calculation

     total cpu time spent up to now is        6.6 secs

     Self-consistent Calculation

     iteration #  1     ecut=    50.00 Ry     beta= 0.31
     Davidson diagonalization with overlap
     ethr =  2.88E-10,  avg # of iterations =  4.0

     negative rho (up, down):  1.849E-03 0.000E+00

     total cpu time spent up to now is        6.7 secs

     total energy              =     -35.96654732 Ry
     Harris-Foulkes estimate   =     -35.96654738 Ry
     estimated scf accuracy    <       0.00000020 Ry

     iteration #  2     ecut=    50.00 Ry     beta= 0.31
     Davidson diagonalization with overlap
     ethr =  2.48E-09,  avg # of iterations =  1.0

     negative rho (up, down):  1.849E-03 0.000E+00

     total cpu time spent up to now is        6.9 secs

     total energy              =     -35.96654729 Ry
     Harris-Foulkes estimate   =     -35.96654733 Ry
     estimated scf accuracy    <       0.00000007 Ry

     iteration #  3     ecut=    50.00 Ry     beta= 0.31
     Davidson diagonalization with overlap
     ethr =  8.91E-10,  avg # of iterations =  2.0

     negative rho (up, down):  1.849E-03 0.000E+00

     total cpu time spent up to now is        7.0 secs

     End of self-consistent calculation

          k = 0.0000 0.0000 0.0000 (  2414 PWs)   bands (ev):

   -23.6921 -10.6791  -7.3343  -7.3343   0.4014

     occupation numbers 
     1.0000   1.0000   1.0000   1.0000   0.0000

     the Fermi energy is    -5.4859 ev

!    total energy              =     -35.96654730 Ry
     Harris-Foulkes estimate   =     -35.96654730 Ry
     estimated scf accuracy    <          3.2E-09 Ry

     convergence has been achieved in   3 iterations

     Using ACE for calculation of exact exchange

     total energy              =     -35.96654743 Ry
     Harris-Foulkes estimate   =     -35.96654743 Ry
     est. exchange err (dexx)  =       0.00000013 Ry
     - averaged Fock potential =       2.93744773 Ry
     + Fock energy (ACE)       =      -1.46871531 Ry

     EXX: now go back to refine exchange calculation

     total cpu time spent up to now is        7.4 secs

     Self-consistent Calculation

     iteration #  1     ecut=    50.00 Ry     beta= 0.31
     Davidson diagonalization with overlap
     ethr =  8.91E-10,  avg # of iterations =  2.0

     negative rho (up, down):  1.849E-03 0.000E+00

     total cpu time spent up to now is        7.6 secs

     total energy              =     -35.96654747 Ry
     Harris-Foulkes estimate   =     -35.96654748 Ry
     estimated scf accuracy    <       0.00000002 Ry

     iteration #  2     ecut=    50.00 Ry     beta= 0.31
     Davidson diagonalization with overlap
     ethr =  2.81E-10,  avg # of iterations =  1.0

     negative rho (up, down):  1.849E-03 0.000E+00

     total cpu time spent up to now is        7.7 secs

     End of self-consistent calculation

          k = 0.0000 0.0000 0.0000 (  2414 PWs)   bands (ev):

   -23.6921 -10.6789  -7.3344  -7.3344   0.4014

     occupation numbers 
     1.0000   1.0000   1.0000   1.0000   0.0000

     the Fermi energy is    -5.4859 ev

!    total energy              =     -35.96654747 Ry
     Harris-Foulkes estimate   =     -35.96654747 Ry
     estimated scf accuracy    <          4.8E-09 Ry

     convergence has been achieved in   2 iterations

     Using ACE for calculation of exact exchange

     total energy              =     -35.96654748 Ry
     Harris-Foulkes estimate   =     -35.96654748 Ry
     est. exchange err (dexx)  =       0.00000001 Ry
     - averaged Fock potential =       2.93743809 Ry
     + Fock energy (ACE)       =      -1.46872278 Ry

     EXX: now go back to refine exchange calculation

     total cpu time spent up to now is        7.9 secs

     Self-consistent Calculation

     iteration #  1     ecut=    50.00 Ry     beta= 0.31
     Davidson diagonalization with overlap
     ethr =  2.81E-10,  avg # of iterations =  2.0

     Threshold (ethr) on eigenvalues was too large:
     Diagonalizing with lowered threshold

     Davidson diagonalization with overlap
     ethr =  1.23E-11,  avg # of iterations =  1.0

     negative rho (up, down):  1.849E-03 0.000E+00

     total cpu time spent up to now is        8.0 secs

     End of self-consistent calculation

          k = 0.0000 0.0000 0.0000 (  2414 PWs)   bands (ev):

   -23.6923 -10.6791  -7.3346  -7.3346   0.4013

     occupation numbers 
     1.0000   1.0000   1.0000   1.0000   0.0000

     the Fermi energy is    -5.4860 ev

!    total energy              =     -35.96654748 Ry
     Harris-Foulkes estimate   =     -35.96654748 Ry
     estimated scf accuracy    <          8.6E-10 Ry

     convergence has been achieved in   1 iterations

     Using ACE for calculation of exact exchange

!!   total energy              =     -35.96654748 Ry
     Harris-Foulkes estimate   =     -35.96654748 Ry
     est. exchange err (dexx)  =          4.0E-10 Ry
     - averaged Fock potential =       2.93744034 Ry
     + Fock energy (ACE)       =      -1.46871756 Ry

     EXX self-consistency reached

     negative rho (up, down):  1.849E-03 0.000E+00

     Forces acting on atoms (cartesian axes, Ry/au):

     atom    1 type  1   force =     0.00000000    0.00000000    0.00000000
     atom    2 type  2   force =     0.00000000    0.00000000    0.00000000
     The non-local contrib.  to forces
     atom    1 type  1   force =     0.00000000    0.00000000    0.00000000
     atom    2 type  2   force =     0.00000000    0.00000000    0.00000000
     The ionic contribution  to forces
     atom    1 type  1   force =    -0.00000147    0.00000085   -0.00000000
     atom    2 type  2   force =     0.00000147   -0.00000085    0.00000000
     The local contribution  to forces
     atom    1 type  1   force =     0.00000147   -0.00000085   -0.00000000
     atom    2 type  2   force =    -0.00000170    0.00000098   -0.00000001
     The core correction contribution to forces
     atom    1 type  1   force =     0.00000002   -0.00000001   -0.00000000
     atom    2 type  2   force =     0.00000001   -0.00000000   -0.00000000
     The Hubbard contrib.    to forces
     atom    1 type  1   force =     0.00000000    0.00000000    0.00000000
     atom    2 type  2   force =     0.00000000    0.00000000    0.00000000
     The SCF correction term to forces
     atom    1 type  1   force =    -0.00000000    0.00000000    0.00000000
     atom    2 type  2   force =     0.00000000   -0.00000000    0.00000001

     Total force =     0.000000     Total SCF correction =     0.000000


     Computing stress (Cartesian axis) and pressure


     negative rho (up, down):  1.849E-03 0.000E+00
     Message from routine exx_stress:
     USPP stress not tested
          total   stress  (Ry/bohr**3)                   (kbar)     P=   32.88
   0.00014539   0.00000000   0.00000000         21.39      0.00      0.00
   0.00000000   0.00014539   0.00000000          0.00     21.39      0.00
   0.00000000   0.00000000   0.00037982          0.00      0.00     55.87

     kinetic stress (kbar)   2101.58     -0.00      0.00
                               -0.00   2101.58      0.00
                                0.00      0.00   1998.52

     local   stress (kbar) -41474.08     -0.00     -0.00
                               -0.00 -41474.08     -0.00
                               -0.00     -0.00  41548.96

     nonloc. stress (kbar)    -31.49      0.00      0.00
                                0.00    -31.49      0.00
                                0.00      0.00     -7.46

     hartree stress (kbar)  19883.60      0.00      0.00
                                0.00  19883.60      0.00
                                0.00      0.00 -19446.75

     exc-cor stress (kbar)   -152.49      0.00      0.00
                                0.00   -152.49      0.00
                                0.00      0.00   -159.98

     corecor stress (kbar)   -199.91     -0.00     -0.00
                               -0.00   -199.91     -0.00
                               -0.00     -0.00   -189.56

     ewald   stress (kbar)  20007.53      0.00      0.00
                                0.00  20007.53     -0.00
                                0.00     -0.00 -23629.09

     hubbard stress (kbar)      0.00      0.00      0.00
                                0.00      0.00      0.00
                                0.00      0.00      0.00

     london  stress (kbar)      0.00      0.00      0.00
                                0.00      0.00      0.00
                                0.00      0.00      0.00

     DFT-D3  stress (kbar)      0.00      0.00      0.00
                                0.00      0.00      0.00
                                0.00      0.00      0.00

     XDM     stress (kbar)      0.00      0.00      0.00
                                0.00      0.00      0.00
                                0.00      0.00      0.00

     dft-nl  stress (kbar)      0.00      0.00      0.00
                                0.00      0.00      0.00
                                0.00      0.00      0.00

     TS-vdW  stress (kbar)      0.00      0.00      0.00
                                0.00      0.00      0.00
                                0.00      0.00      0.00


     EXX     stress (kbar)   -113.34      0.00      0.00
                                0.00   -113.34     -0.00
                                0.00      0.00    -58.76



     Writing output data file hBN.save/
 
     init_run     :      0.22s CPU      0.30s WALL (       1 calls)
     electrons    :      3.22s CPU      5.61s WALL (       6 calls)
     forces       :      0.08s CPU      0.08s WALL (       1 calls)
     stress       :      0.16s CPU      0.17s WALL (       1 calls)

     Called by init_run:
     wfcinit      :      0.02s CPU      0.08s WALL (       1 calls)
     wfcinit:atom :      0.00s CPU      0.00s WALL (       1 calls)
     wfcinit:wfcr :      0.02s CPU      0.03s WALL (       1 calls)
     potinit      :      0.09s CPU      0.11s WALL (       1 calls)
     hinit0       :      0.06s CPU      0.06s WALL (       1 calls)

     Called by electrons:
     c_bands      :      0.26s CPU      0.75s WALL (      37 calls)
     sum_band     :      0.09s CPU      0.11s WALL (      37 calls)
     v_of_rho     :      1.19s CPU      1.22s WALL (      38 calls)
     v_h          :      0.01s CPU      0.01s WALL (      38 calls)
     v_xc         :      1.25s CPU      1.27s WALL (      40 calls)
     newd         :      0.06s CPU      0.06s WALL (      37 calls)
     PAW_pot      :      1.70s CPU      1.74s WALL (      38 calls)
     mix_rho      :      0.03s CPU      0.03s WALL (      37 calls)

     Called by c_bands:
     init_us_2    :      0.01s CPU      0.01s WALL (     111 calls)
     regterg      :      0.25s CPU      0.27s WALL (      37 calls)

     Called by sum_band:
     sum_band:bec :      0.00s CPU      0.00s WALL (      37 calls)
     addusdens    :      0.05s CPU      0.05s WALL (      37 calls)

     Called by *egterg:
     h_psi        :      0.13s CPU      0.14s WALL (     117 calls)
     s_psi        :      0.00s CPU      0.00s WALL (     117 calls)
     g_psi        :      0.00s CPU      0.00s WALL (      79 calls)
     rdiaghg      :      0.11s CPU      0.12s WALL (     110 calls)
     regterg:over :      0.01s CPU      0.01s WALL (      79 calls)
     regterg:upda :      0.00s CPU      0.00s WALL (      79 calls)
     regterg:last :      0.00s CPU      0.00s WALL (      42 calls)
     rdiaghg:chol :      0.01s CPU      0.01s WALL (     110 calls)
     rdiaghg:inve :      0.00s CPU      0.00s WALL (     110 calls)
     rdiaghg:para :      0.01s CPU      0.01s WALL (     220 calls)

     Called by h_psi:
     h_psi:pot    :      0.12s CPU      0.13s WALL (     117 calls)
     h_psi:calbec :      0.00s CPU      0.01s WALL (     117 calls)
     vloc_psi     :      0.11s CPU      0.13s WALL (     117 calls)
     add_vuspsi   :      0.00s CPU      0.00s WALL (     117 calls)

     General routines
     calbec       :      0.02s CPU      0.02s WALL (     265 calls)
     fft          :      0.21s CPU      0.22s WALL (     355 calls)
     ffts         :      0.01s CPU      0.01s WALL (      37 calls)
     fftw         :      0.12s CPU      0.14s WALL (     715 calls)
     fftc         :      0.04s CPU      0.04s WALL (     130 calls)
     fftcw        :      0.01s CPU      0.01s WALL (      71 calls)
 
     Parallel routines
     fft_scatt_xy :      0.02s CPU      0.02s WALL (    1308 calls)
     fft_scatt_yz :      0.21s CPU      0.22s WALL (    1308 calls)

     EXX routines
     exx_grid     :      0.00s CPU      0.00s WALL (       1 calls)
     exxinit      :      0.61s CPU      0.62s WALL (       6 calls)
     vexx         :      0.11s CPU      0.12s WALL (       6 calls)
     matcalc      :      0.00s CPU      0.00s WALL (     100 calls)
     aceupdate    :      0.00s CPU      0.00s WALL (       6 calls)
     vexxace      :      0.00s CPU      0.01s WALL (      83 calls)
     aceinit      :      0.11s CPU      0.12s WALL (       6 calls)

     EXX+US  routines
     becxx        :      0.00s CPU      0.00s WALL (       6 calls)
     addusxx      :      0.02s CPU      0.02s WALL (     120 calls)
     newdxx       :      0.02s CPU      0.02s WALL (     120 calls)
     qvan_init    :      0.01s CPU      0.01s WALL (       6 calls)
     nlxx_pot     :      0.00s CPU      0.00s WALL (      30 calls)

     EXX+PAW routines
     PAW_newdxx   :      0.01s CPU      0.01s WALL (     120 calls)

     PAW routines
     PAW_pot      :      1.70s CPU      1.74s WALL (      38 calls)
     PAW_symme    :      0.01s CPU      0.01s WALL (      74 calls)
 
     PWSCF        :      5.44s CPU      9.60s WALL

 
   This run was terminated on:  11:59:24  14Jan2021            

=------------------------------------------------------------------------------=
   JOB DONE.
=------------------------------------------------------------------------------=
