
     Program PWSCF v.6.4.1 starts on 14Jan2021 at 11:58:47 

     This program is part of the open-source Quantum ESPRESSO suite
     for quantum simulation of materials; please cite
         "P. Giannozzi et al., J. Phys.:Condens. Matter 21 395502 (2009);
         "P. Giannozzi et al., J. Phys.:Condens. Matter 29 465901 (2017);
          URL http://www.quantum-espresso.org", 
     in publications or presentations arising from this work. More details at
     http://www.quantum-espresso.org/quote

     Parallel version (MPI), running on    16 processors

     MPI processes distributed on     1 nodes
     R & G space division:  proc/nbgrp/npool/nimage =      16
     Waiting for input...
     Reading input from standard input
Warning: card &IONS ignored
Warning: card     ION_DYNAMICS="BFGS" ignored
Warning: card / ignored

     Current dimensions of program PWSCF are:
     Max number of different atomic species (ntypx) = 10
     Max number of k-points (npk) =  40000
     Max angular momentum in pseudopotentials (lmaxx) =  3

     IMPORTANT: XC functional enforced from input :
     Exchange-correlation      = HSE ( 1  4 12  4 0 0)
     EXX-fraction              =        0.25
     Using LIBXC version       =    4   3   4
     Any further DFT definition will be discarded
     Please, verify this is what you really want

               file N.pbe-n-kjpaw_psl.1.0.0.UPF: wavefunction(s)  2S renormalized

     gamma-point specific algorithms are used
     Message from routine setup :
     BEWARE: nonlinear core correction is not consistent with hybrid XC

     Subspace diagonalization in iterative solution of the eigenvalue problem:
     one sub-group per band group will be used
     scalapack distributed-memory algorithm (size of sub-group:  2*  2 procs)

     EXX: grid of k+q points same as grid of k-points
 
     Parallelization info
     --------------------
     sticks:   dense  smooth     PW     G-vecs:    dense   smooth      PW
     Min          18      18      4                 2266     2266     272
     Max          20      20      6                 2372     2372     326
     Sum         313     313     85                37373    37373    4803
 


     bravais-lattice index     =            4
     lattice parameter (alat)  =       4.8377  a.u.
     unit-cell volume          =     783.3420 (a.u.)^3
     number of atoms/cell      =            2
     number of atomic types    =            2
     number of electrons       =         8.00
     number of Kohn-Sham states=            5
     kinetic-energy cutoff     =      50.0000  Ry
     charge density cutoff     =     200.0000  Ry
     cutoff for Fock operator  =     200.0000  Ry
     convergence threshold     =      1.0E-08
     mixing beta               =       0.3100
     number of iterations used =            8  plain     mixing
     Exchange-correlation      = HSE ( 1  4 12  4 0 0)
     EXX-fraction              =        0.25
     Using LIBXC version       =    4   3   4

     celldm(1)=   4.837699  celldm(2)=   0.000000  celldm(3)=   7.989220
     celldm(4)=   0.000000  celldm(5)=   0.000000  celldm(6)=   0.000000

     crystal axes: (cart. coord. in units of alat)
               a(1) = (   1.000000   0.000000   0.000000 )  
               a(2) = (  -0.500000   0.866025   0.000000 )  
               a(3) = (   0.000000   0.000000   7.989220 )  

     reciprocal axes: (cart. coord. in units 2 pi/alat)
               b(1) = (  1.000000  0.577350  0.000000 )  
               b(2) = (  0.000000  1.154701  0.000000 )  
               b(3) = (  0.000000  0.000000  0.125169 )  


     PseudoPot. # 1 for B  read from file:
     ./pseudo/B.pbe-n-kjpaw_psl.1.0.0.UPF
     MD5 check sum: 8c825a5969375aca5c2c6ad5945b3059
     Pseudo is Projector augmented-wave + core cor, Zval =  3.0
     Generated using "atomic" code by A. Dal Corso v.6.3
     Shape of augmentation charge: PSQ
     Using radial grid of 1059 points,  4 beta functions with: 
                l(1) =   0
                l(2) =   0
                l(3) =   1
                l(4) =   1
     Q(r) pseudized with 0 coefficients 


     PseudoPot. # 2 for N  read from file:
     ./pseudo/N.pbe-n-kjpaw_psl.1.0.0.UPF
     MD5 check sum: 14c48229446f9f2d411169a3abcbc3fa
     Pseudo is Projector augmented-wave + core cor, Zval =  5.0
     Generated using "atomic" code by A. Dal Corso v.6.3
     Shape of augmentation charge: PSQ
     Using radial grid of 1085 points,  4 beta functions with: 
                l(1) =   0
                l(2) =   0
                l(3) =   1
                l(4) =   1
     Q(r) pseudized with 0 coefficients 


     atomic species   valence    mass     pseudopotential
        B              3.00    10.00000     B ( 1.00)
        N              5.00    14.00000     N ( 1.00)

     12 Sym. Ops. (no inversion) found


                                    s                        frac. trans.

      isym =  1     identity                                     

 cryst.   s( 1) = (     1          0          0      )
                  (     0          1          0      )
                  (     0          0          1      )

 cart.    s( 1) = (  1.0000000  0.0000000  0.0000000 )
                  (  0.0000000  1.0000000  0.0000000 )
                  (  0.0000000  0.0000000  1.0000000 )


      isym =  2     180 deg rotation - cart. axis [0,1,0]        

 cryst.   s( 2) = (    -1          0          0      )
                  (     1          1          0      )
                  (     0          0         -1      )

 cart.    s( 2) = ( -1.0000000  0.0000000  0.0000000 )
                  (  0.0000000  1.0000000  0.0000000 )
                  (  0.0000000  0.0000000 -1.0000000 )


      isym =  3     120 deg rotation - cryst. axis [0,0,1]       

 cryst.   s( 3) = (     0          1          0      )
                  (    -1         -1          0      )
                  (     0          0          1      )

 cart.    s( 3) = ( -0.5000000 -0.8660254  0.0000000 )
                  (  0.8660254 -0.5000000  0.0000000 )
                  (  0.0000000  0.0000000  1.0000000 )


      isym =  4     120 deg rotation - cryst. axis [0,0,-1]      

 cryst.   s( 4) = (    -1         -1          0      )
                  (     1          0          0      )
                  (     0          0          1      )

 cart.    s( 4) = ( -0.5000000  0.8660254  0.0000000 )
                  ( -0.8660254 -0.5000000  0.0000000 )
                  (  0.0000000  0.0000000  1.0000000 )


      isym =  5     180 deg rotation - cryst. axis [1,-1,0]      

 cryst.   s( 5) = (     0         -1          0      )
                  (    -1          0          0      )
                  (     0          0         -1      )

 cart.    s( 5) = (  0.5000000 -0.8660254  0.0000000 )
                  ( -0.8660254 -0.5000000  0.0000000 )
                  (  0.0000000  0.0000000 -1.0000000 )


      isym =  6     180 deg rotation - cryst. axis [2,1,0]       

 cryst.   s( 6) = (     1          1          0      )
                  (     0         -1          0      )
                  (     0          0         -1      )

 cart.    s( 6) = (  0.5000000  0.8660254  0.0000000 )
                  (  0.8660254 -0.5000000  0.0000000 )
                  (  0.0000000  0.0000000 -1.0000000 )


      isym =  7     inv. 180 deg rotation - cart. axis [0,0,1]   

 cryst.   s( 7) = (     1          0          0      )
                  (     0          1          0      )
                  (     0          0         -1      )

 cart.    s( 7) = (  1.0000000  0.0000000  0.0000000 )
                  (  0.0000000  1.0000000  0.0000000 )
                  (  0.0000000  0.0000000 -1.0000000 )


      isym =  8     inv. 180 deg rotation - cart. axis [1,0,0]   

 cryst.   s( 8) = (    -1          0          0      )
                  (     1          1          0      )
                  (     0          0          1      )

 cart.    s( 8) = ( -1.0000000  0.0000000  0.0000000 )
                  (  0.0000000  1.0000000  0.0000000 )
                  (  0.0000000  0.0000000  1.0000000 )


      isym =  9     inv.  60 deg rotation - cryst. axis [0,0,1]  

 cryst.   s( 9) = (    -1         -1          0      )
                  (     1          0          0      )
                  (     0          0         -1      )

 cart.    s( 9) = ( -0.5000000  0.8660254  0.0000000 )
                  ( -0.8660254 -0.5000000  0.0000000 )
                  (  0.0000000  0.0000000 -1.0000000 )


      isym = 10     inv.  60 deg rotation - cryst. axis [0,0,-1] 

 cryst.   s(10) = (     0          1          0      )
                  (    -1         -1          0      )
                  (     0          0         -1      )

 cart.    s(10) = ( -0.5000000 -0.8660254  0.0000000 )
                  (  0.8660254 -0.5000000  0.0000000 )
                  (  0.0000000  0.0000000 -1.0000000 )


      isym = 11     inv. 180 deg rotation - cryst. axis [0,1,0]  

 cryst.   s(11) = (     1          1          0      )
                  (     0         -1          0      )
                  (     0          0          1      )

 cart.    s(11) = (  0.5000000  0.8660254  0.0000000 )
                  (  0.8660254 -0.5000000  0.0000000 )
                  (  0.0000000  0.0000000  1.0000000 )


      isym = 12     inv. 180 deg rotation - cryst. axis [1,1,0]  

 cryst.   s(12) = (     0         -1          0      )
                  (    -1          0          0      )
                  (     0          0          1      )

 cart.    s(12) = (  0.5000000 -0.8660254  0.0000000 )
                  ( -0.8660254 -0.5000000  0.0000000 )
                  (  0.0000000  0.0000000  1.0000000 )


     point group D_3h (-62m)
     there are  6 classes
     the character table:

       E     2C3   3C2   s_h   2S3   3s_v 
A'_1   1.00  1.00  1.00  1.00  1.00  1.00
A'_2   1.00  1.00 -1.00  1.00  1.00 -1.00
E'     2.00 -1.00  0.00  2.00 -1.00  0.00
A''1   1.00  1.00  1.00 -1.00 -1.00 -1.00
A''2   1.00  1.00 -1.00 -1.00 -1.00  1.00
E''    2.00 -1.00  0.00 -2.00  1.00  0.00

     the symmetry operations in each class and the name of the first element:

     E        1
          identity                                               
     2C3      3    4
          120 deg rotation - cryst. axis [0,0,1]                 
     3C2      2    6    5
          180 deg rotation - cart. axis [0,1,0]                  
     s_h      7
          inv. 180 deg rotation - cart. axis [0,0,1]             
     2S3      9   10
          inv.  60 deg rotation - cryst. axis [0,0,1]            
     3s_v     8   11   12
          inv. 180 deg rotation - cart. axis [1,0,0]             

   Cartesian axes

     site n.     atom                  positions (alat units)
         1           B   tau(   1) = (   0.5000000   0.2886751   0.0000000  )
         2           N   tau(   2) = (  -0.0000000   0.5773503   0.0000000  )

   Crystallographic axes

     site n.     atom                  positions (cryst. coord.)
         1           B   tau(   1) = (  0.6666667  0.3333333  0.0000000  )
         2           N   tau(   2) = (  0.3333333  0.6666667  0.0000000  )

     number of k points=     1  gaussian smearing, width (Ry)=  0.0100
                       cart. coord. in units 2pi/alat
        k(    1) = (   0.0000000   0.0000000   0.0000000), wk =   2.0000000

                       cryst. coord.
        k(    1) = (   0.0000000   0.0000000   0.0000000), wk =   2.0000000

     Dense  grid:    18687 G-vectors     FFT dimensions: (  24,  24, 180)

     Dynamical RAM for                 wfc:       0.01 MB

     Dynamical RAM for     wfc (w. buffer):       0.01 MB

     Dynamical RAM for                 EXX:       2.62 MB

     Dynamical RAM for           str. fact:       0.04 MB

     Dynamical RAM for           local pot:       0.00 MB

     Dynamical RAM for          nlocal pot:       0.04 MB

     Dynamical RAM for                qrad:       0.50 MB

     Dynamical RAM for          rho,v,vnew:       0.21 MB

     Dynamical RAM for               rhoin:       0.07 MB

     Dynamical RAM for            rho*nmix:       0.29 MB

     Dynamical RAM for           G-vectors:       0.08 MB

     Dynamical RAM for          h,s,v(r/c):       0.00 MB

     Dynamical RAM for          <psi|beta>:       0.00 MB

     Dynamical RAM for                 psi:       0.04 MB

     Dynamical RAM for                hpsi:       0.04 MB

     Dynamical RAM for                spsi:       0.04 MB

     Dynamical RAM for      wfcinit/wfcrot:       0.04 MB

     Dynamical RAM for           addusdens:       0.79 MB

     Dynamical RAM for          addusforce:       0.85 MB

     Dynamical RAM for         addusstress:       0.89 MB

     Estimated static dynamical RAM per process >       4.16 MB

     Estimated max dynamical RAM per process >       5.05 MB

     Estimated total dynamical RAM >      80.87 MB

     Check: negative core charge=   -0.000009

     Initial potential from superposition of free atoms

     starting charge    7.99971, renormalised to    8.00000

     negative rho (up, down):  6.049E-04 0.000E+00
     Starting wfcs are    8 randomized atomic wfcs

     total cpu time spent up to now is        1.5 secs

     Self-consistent Calculation

     iteration #  1     ecut=    50.00 Ry     beta= 0.31
     Davidson diagonalization with overlap
     ethr =  1.00E-02,  avg # of iterations =  3.0

     negative rho (up, down):  8.969E-04 0.000E+00

     total cpu time spent up to now is        1.8 secs

     total energy              =     -39.37837893 Ry
     Harris-Foulkes estimate   =     -39.59825874 Ry
     estimated scf accuracy    <       0.58420843 Ry

     iteration #  2     ecut=    50.00 Ry     beta= 0.31
     Davidson diagonalization with overlap
     ethr =  7.30E-03,  avg # of iterations =  2.0

     negative rho (up, down):  1.212E-03 0.000E+00

     total cpu time spent up to now is        2.0 secs

     total energy              =     -39.42102502 Ry
     Harris-Foulkes estimate   =     -39.44167550 Ry
     estimated scf accuracy    <       0.08428788 Ry

     iteration #  3     ecut=    50.00 Ry     beta= 0.31
     Davidson diagonalization with overlap
     ethr =  1.05E-03,  avg # of iterations =  2.0

     negative rho (up, down):  1.483E-03 0.000E+00

     total cpu time spent up to now is        2.1 secs

     total energy              =     -39.42429336 Ry
     Harris-Foulkes estimate   =     -39.43324742 Ry
     estimated scf accuracy    <       0.03130500 Ry

     iteration #  4     ecut=    50.00 Ry     beta= 0.31
     Davidson diagonalization with overlap
     ethr =  3.91E-04,  avg # of iterations =  2.0

     negative rho (up, down):  1.684E-03 0.000E+00

     total cpu time spent up to now is        2.2 secs

     total energy              =     -39.42779683 Ry
     Harris-Foulkes estimate   =     -39.42754636 Ry
     estimated scf accuracy    <       0.00361963 Ry

     iteration #  5     ecut=    50.00 Ry     beta= 0.31
     Davidson diagonalization with overlap
     ethr =  4.52E-05,  avg # of iterations =  4.0

     negative rho (up, down):  1.680E-03 0.000E+00

     total cpu time spent up to now is        2.3 secs

     total energy              =     -39.42797043 Ry
     Harris-Foulkes estimate   =     -39.42836581 Ry
     estimated scf accuracy    <       0.00155575 Ry

     iteration #  6     ecut=    50.00 Ry     beta= 0.31
     Davidson diagonalization with overlap
     ethr =  1.94E-05,  avg # of iterations =  1.0

     negative rho (up, down):  1.694E-03 0.000E+00

     total cpu time spent up to now is        2.5 secs

     total energy              =     -39.42758250 Ry
     Harris-Foulkes estimate   =     -39.42799331 Ry
     estimated scf accuracy    <       0.00082635 Ry

     iteration #  7     ecut=    50.00 Ry     beta= 0.31
     Davidson diagonalization with overlap
     ethr =  1.03E-05,  avg # of iterations =  2.0

     negative rho (up, down):  1.693E-03 0.000E+00

     total cpu time spent up to now is        2.6 secs

     total energy              =     -39.42775217 Ry
     Harris-Foulkes estimate   =     -39.42778013 Ry
     estimated scf accuracy    <       0.00008921 Ry

     iteration #  8     ecut=    50.00 Ry     beta= 0.31
     Davidson diagonalization with overlap
     ethr =  1.12E-06,  avg # of iterations =  1.0

     negative rho (up, down):  1.694E-03 0.000E+00

     total cpu time spent up to now is        2.8 secs

     total energy              =     -39.42774279 Ry
     Harris-Foulkes estimate   =     -39.42775747 Ry
     estimated scf accuracy    <       0.00003036 Ry

     iteration #  9     ecut=    50.00 Ry     beta= 0.31
     Davidson diagonalization with overlap
     ethr =  3.80E-07,  avg # of iterations =  2.0

     negative rho (up, down):  1.695E-03 0.000E+00

     total cpu time spent up to now is        2.9 secs

     total energy              =     -39.42775407 Ry
     Harris-Foulkes estimate   =     -39.42775392 Ry
     estimated scf accuracy    <       0.00000451 Ry

     iteration # 10     ecut=    50.00 Ry     beta= 0.31
     Davidson diagonalization with overlap
     ethr =  5.64E-08,  avg # of iterations =  1.0

     negative rho (up, down):  1.696E-03 0.000E+00

     total cpu time spent up to now is        3.0 secs

     total energy              =     -39.42775373 Ry
     Harris-Foulkes estimate   =     -39.42775431 Ry
     estimated scf accuracy    <       0.00000473 Ry

     iteration # 11     ecut=    50.00 Ry     beta= 0.31
     Davidson diagonalization with overlap
     ethr =  5.64E-08,  avg # of iterations =  1.0

     negative rho (up, down):  1.697E-03 0.000E+00

     total cpu time spent up to now is        3.1 secs

     total energy              =     -39.42775259 Ry
     Harris-Foulkes estimate   =     -39.42775375 Ry
     estimated scf accuracy    <       0.00000361 Ry

     iteration # 12     ecut=    50.00 Ry     beta= 0.31
     Davidson diagonalization with overlap
     ethr =  4.51E-08,  avg # of iterations =  1.0

     negative rho (up, down):  1.697E-03 0.000E+00

     total cpu time spent up to now is        3.2 secs

     total energy              =     -39.42775274 Ry
     Harris-Foulkes estimate   =     -39.42775282 Ry
     estimated scf accuracy    <       0.00000064 Ry

     iteration # 13     ecut=    50.00 Ry     beta= 0.31
     Davidson diagonalization with overlap
     ethr =  7.94E-09,  avg # of iterations =  2.0

     negative rho (up, down):  1.697E-03 0.000E+00

     total cpu time spent up to now is        3.3 secs

     total energy              =     -39.42775269 Ry
     Harris-Foulkes estimate   =     -39.42775279 Ry
     estimated scf accuracy    <       0.00000032 Ry

     iteration # 14     ecut=    50.00 Ry     beta= 0.31
     Davidson diagonalization with overlap
     ethr =  4.01E-09,  avg # of iterations =  2.0

     negative rho (up, down):  1.697E-03 0.000E+00

     total cpu time spent up to now is        3.5 secs

     total energy              =     -39.42775269 Ry
     Harris-Foulkes estimate   =     -39.42775272 Ry
     estimated scf accuracy    <       0.00000006 Ry

     iteration # 15     ecut=    50.00 Ry     beta= 0.31
     Davidson diagonalization with overlap
     ethr =  7.78E-10,  avg # of iterations =  2.0

     negative rho (up, down):  1.697E-03 0.000E+00

     total cpu time spent up to now is        3.6 secs

     End of self-consistent calculation

          k = 0.0000 0.0000 0.0000 (  2402 PWs)   bands (ev):

   -21.6429  -9.5472  -5.5511  -5.5511   0.2188

     occupation numbers 
     1.0000   1.0000   1.0000   1.0000   0.0000

     the Fermi energy is    -2.3098 ev

!    total energy              =     -39.42775271 Ry
     Harris-Foulkes estimate   =     -39.42775271 Ry
     estimated scf accuracy    <          3.2E-09 Ry

     convergence has been achieved in  15 iterations

     Using ACE for calculation of exact exchange

     EXX grid:    18687 G-vectors     FFT dimensions: (  24,  24, 180)

     negative rho (up, down):  1.697E-03 0.000E+00

     EXX: now go back to refine exchange calculation

     total cpu time spent up to now is        4.5 secs

     Self-consistent Calculation

     iteration #  1     ecut=    50.00 Ry     beta= 0.31
     Davidson diagonalization with overlap
     ethr =  7.78E-10,  avg # of iterations =  8.0

     negative rho (up, down):  1.731E-03 0.000E+00

     total cpu time spent up to now is        4.7 secs

     total energy              =     -36.14125076 Ry
     Harris-Foulkes estimate   =     -36.14155203 Ry
     estimated scf accuracy    <       0.00077151 Ry

     iteration #  2     ecut=    50.00 Ry     beta= 0.31
     Davidson diagonalization with overlap
     ethr =  9.64E-06,  avg # of iterations =  4.0

     negative rho (up, down):  1.740E-03 0.000E+00

     total cpu time spent up to now is        4.9 secs

     total energy              =     -35.96673344 Ry
     Harris-Foulkes estimate   =     -35.96710704 Ry
     estimated scf accuracy    <       0.00275081 Ry

     iteration #  3     ecut=    50.00 Ry     beta= 0.31
     Davidson diagonalization with overlap
     ethr =  9.64E-06,  avg # of iterations =  1.0

     negative rho (up, down):  1.819E-03 0.000E+00

     total cpu time spent up to now is        5.0 secs

     total energy              =     -35.96547909 Ry
     Harris-Foulkes estimate   =     -35.96675017 Ry
     estimated scf accuracy    <       0.00190087 Ry

     iteration #  4     ecut=    50.00 Ry     beta= 0.31
     Davidson diagonalization with overlap
     ethr =  9.64E-06,  avg # of iterations =  3.0

     negative rho (up, down):  1.874E-03 0.000E+00

     total cpu time spent up to now is        5.1 secs

     total energy              =     -35.96613028 Ry
     Harris-Foulkes estimate   =     -35.96604552 Ry
     estimated scf accuracy    <       0.00022956 Ry

     iteration #  5     ecut=    50.00 Ry     beta= 0.31
     Davidson diagonalization with overlap
     ethr =  2.87E-06,  avg # of iterations =  2.0

     negative rho (up, down):  1.853E-03 0.000E+00

     total cpu time spent up to now is        5.2 secs

     total energy              =     -35.96585070 Ry
     Harris-Foulkes estimate   =     -35.96615654 Ry
     estimated scf accuracy    <       0.00050145 Ry

     iteration #  6     ecut=    50.00 Ry     beta= 0.31
     Davidson diagonalization with overlap
     ethr =  2.87E-06,  avg # of iterations =  2.0

     negative rho (up, down):  1.855E-03 0.000E+00

     total cpu time spent up to now is        5.4 secs

     total energy              =     -35.96595916 Ry
     Harris-Foulkes estimate   =     -35.96595981 Ry
     estimated scf accuracy    <       0.00000184 Ry

     iteration #  7     ecut=    50.00 Ry     beta= 0.31
     Davidson diagonalization with overlap
     ethr =  2.30E-08,  avg # of iterations =  2.0

     negative rho (up, down):  1.856E-03 0.000E+00

     total cpu time spent up to now is        5.5 secs

     total energy              =     -35.96596000 Ry
     Harris-Foulkes estimate   =     -35.96596021 Ry
     estimated scf accuracy    <       0.00000080 Ry

     iteration #  8     ecut=    50.00 Ry     beta= 0.31
     Davidson diagonalization with overlap
     ethr =  9.98E-09,  avg # of iterations =  1.0

     negative rho (up, down):  1.855E-03 0.000E+00

     total cpu time spent up to now is        5.7 secs

     total energy              =     -35.96595978 Ry
     Harris-Foulkes estimate   =     -35.96596001 Ry
     estimated scf accuracy    <       0.00000044 Ry

     iteration #  9     ecut=    50.00 Ry     beta= 0.31
     Davidson diagonalization with overlap
     ethr =  5.51E-09,  avg # of iterations =  2.0

     negative rho (up, down):  1.856E-03 0.000E+00

     total cpu time spent up to now is        5.8 secs

     End of self-consistent calculation

          k = 0.0000 0.0000 0.0000 (  2402 PWs)   bands (ev):

   -23.7149 -10.6922  -7.2732  -7.2732   0.4163

     occupation numbers 
     1.0000   1.0000   1.0000   1.0000   0.0000

     the Fermi energy is    -5.4804 ev

!    total energy              =     -35.96595985 Ry
     Harris-Foulkes estimate   =     -35.96595985 Ry
     estimated scf accuracy    <          6.0E-09 Ry

     convergence has been achieved in   9 iterations

     Using ACE for calculation of exact exchange

     total energy              =     -35.96625463 Ry
     Harris-Foulkes estimate   =     -35.96625463 Ry
     est. exchange err (dexx)  =       0.00029478 Ry
     - averaged Fock potential =       2.94691949 Ry
     + Fock energy (ACE)       =      -1.47291457 Ry

     EXX: now go back to refine exchange calculation

     total cpu time spent up to now is        5.9 secs

     Self-consistent Calculation

     iteration #  1     ecut=    50.00 Ry     beta= 0.31
     Davidson diagonalization with overlap
     ethr =  5.51E-09,  avg # of iterations =  4.0

     negative rho (up, down):  1.856E-03 0.000E+00

     total cpu time spent up to now is        6.1 secs

     total energy              =     -35.96628169 Ry
     Harris-Foulkes estimate   =     -35.96628582 Ry
     estimated scf accuracy    <       0.00001120 Ry

     iteration #  2     ecut=    50.00 Ry     beta= 0.31
     Davidson diagonalization with overlap
     ethr =  1.40E-07,  avg # of iterations =  1.0

     negative rho (up, down):  1.856E-03 0.000E+00

     total cpu time spent up to now is        6.2 secs

     total energy              =     -35.96628012 Ry
     Harris-Foulkes estimate   =     -35.96628210 Ry
     estimated scf accuracy    <       0.00000343 Ry

     iteration #  3     ecut=    50.00 Ry     beta= 0.31
     Davidson diagonalization with overlap
     ethr =  4.29E-08,  avg # of iterations =  2.0

     negative rho (up, down):  1.856E-03 0.000E+00

     total cpu time spent up to now is        6.4 secs

     total energy              =     -35.96628040 Ry
     Harris-Foulkes estimate   =     -35.96628052 Ry
     estimated scf accuracy    <       0.00000021 Ry

     iteration #  4     ecut=    50.00 Ry     beta= 0.31
     Davidson diagonalization with overlap
     ethr =  2.68E-09,  avg # of iterations =  2.0

     negative rho (up, down):  1.856E-03 0.000E+00

     total cpu time spent up to now is        6.5 secs

     total energy              =     -35.96628044 Ry
     Harris-Foulkes estimate   =     -35.96628047 Ry
     estimated scf accuracy    <       0.00000007 Ry

     iteration #  5     ecut=    50.00 Ry     beta= 0.31
     Davidson diagonalization with overlap
     ethr =  8.67E-10,  avg # of iterations =  1.0

     negative rho (up, down):  1.856E-03 0.000E+00

     total cpu time spent up to now is        6.7 secs

     total energy              =     -35.96628044 Ry
     Harris-Foulkes estimate   =     -35.96628045 Ry
     estimated scf accuracy    <       0.00000002 Ry

     iteration #  6     ecut=    50.00 Ry     beta= 0.31
     Davidson diagonalization with overlap
     ethr =  2.61E-10,  avg # of iterations =  2.0

     negative rho (up, down):  1.856E-03 0.000E+00

     total cpu time spent up to now is        6.8 secs

     End of self-consistent calculation

          k = 0.0000 0.0000 0.0000 (  2402 PWs)   bands (ev):

   -23.7350 -10.7107  -7.2952  -7.2952   0.4201

     occupation numbers 
     1.0000   1.0000   1.0000   1.0000   0.0000

     the Fermi energy is    -5.4827 ev

!    total energy              =     -35.96628044 Ry
     Harris-Foulkes estimate   =     -35.96628044 Ry
     estimated scf accuracy    <          1.9E-09 Ry

     convergence has been achieved in   6 iterations

     Using ACE for calculation of exact exchange

     total energy              =     -35.96628371 Ry
     Harris-Foulkes estimate   =     -35.96628371 Ry
     est. exchange err (dexx)  =       0.00000327 Ry
     - averaged Fock potential =       2.94565707 Ry
     + Fock energy (ACE)       =      -1.47274577 Ry

     EXX: now go back to refine exchange calculation

     total cpu time spent up to now is        6.9 secs

     Self-consistent Calculation

     iteration #  1     ecut=    50.00 Ry     beta= 0.31
     Davidson diagonalization with overlap
     ethr =  2.61E-10,  avg # of iterations =  4.0

     negative rho (up, down):  1.856E-03 0.000E+00

     total cpu time spent up to now is        7.0 secs

     total energy              =     -35.96628433 Ry
     Harris-Foulkes estimate   =     -35.96628439 Ry
     estimated scf accuracy    <       0.00000019 Ry

     iteration #  2     ecut=    50.00 Ry     beta= 0.31
     Davidson diagonalization with overlap
     ethr =  2.44E-09,  avg # of iterations =  1.0

     negative rho (up, down):  1.856E-03 0.000E+00

     total cpu time spent up to now is        7.2 secs

     total energy              =     -35.96628430 Ry
     Harris-Foulkes estimate   =     -35.96628433 Ry
     estimated scf accuracy    <       0.00000007 Ry

     iteration #  3     ecut=    50.00 Ry     beta= 0.31
     Davidson diagonalization with overlap
     ethr =  8.71E-10,  avg # of iterations =  2.0

     negative rho (up, down):  1.857E-03 0.000E+00

     total cpu time spent up to now is        7.3 secs

     End of self-consistent calculation

          k = 0.0000 0.0000 0.0000 (  2402 PWs)   bands (ev):

   -23.7373 -10.7121  -7.2978  -7.2978   0.4196

     occupation numbers 
     1.0000   1.0000   1.0000   1.0000   0.0000

     the Fermi energy is    -5.4836 ev

!    total energy              =     -35.96628431 Ry
     Harris-Foulkes estimate   =     -35.96628431 Ry
     estimated scf accuracy    <          3.1E-09 Ry

     convergence has been achieved in   3 iterations

     Using ACE for calculation of exact exchange

     total energy              =     -35.96628444 Ry
     Harris-Foulkes estimate   =     -35.96628444 Ry
     est. exchange err (dexx)  =       0.00000013 Ry
     - averaged Fock potential =       2.94547449 Ry
     + Fock energy (ACE)       =      -1.47272885 Ry

     EXX: now go back to refine exchange calculation

     total cpu time spent up to now is        7.5 secs

     Self-consistent Calculation

     iteration #  1     ecut=    50.00 Ry     beta= 0.31
     Davidson diagonalization with overlap
     ethr =  8.71E-10,  avg # of iterations =  2.0

     negative rho (up, down):  1.857E-03 0.000E+00

     total cpu time spent up to now is        7.6 secs

     total energy              =     -35.96628447 Ry
     Harris-Foulkes estimate   =     -35.96628448 Ry
     estimated scf accuracy    <       0.00000002 Ry

     iteration #  2     ecut=    50.00 Ry     beta= 0.31
     Davidson diagonalization with overlap
     ethr =  2.75E-10,  avg # of iterations =  1.0

     negative rho (up, down):  1.857E-03 0.000E+00

     total cpu time spent up to now is        7.7 secs

     End of self-consistent calculation

          k = 0.0000 0.0000 0.0000 (  2402 PWs)   bands (ev):

   -23.7373 -10.7120  -7.2979  -7.2979   0.4196

     occupation numbers 
     1.0000   1.0000   1.0000   1.0000   0.0000

     the Fermi energy is    -5.4836 ev

!    total energy              =     -35.96628447 Ry
     Harris-Foulkes estimate   =     -35.96628447 Ry
     estimated scf accuracy    <          4.7E-09 Ry

     convergence has been achieved in   2 iterations

     Using ACE for calculation of exact exchange

     total energy              =     -35.96628448 Ry
     Harris-Foulkes estimate   =     -35.96628448 Ry
     est. exchange err (dexx)  =       0.00000001 Ry
     - averaged Fock potential =       2.94546519 Ry
     + Fock energy (ACE)       =      -1.47273635 Ry

     EXX: now go back to refine exchange calculation

     total cpu time spent up to now is        7.7 secs

     Self-consistent Calculation

     iteration #  1     ecut=    50.00 Ry     beta= 0.31
     Davidson diagonalization with overlap
     ethr =  2.75E-10,  avg # of iterations =  2.0

     Threshold (ethr) on eigenvalues was too large:
     Diagonalizing with lowered threshold

     Davidson diagonalization with overlap
     ethr =  1.18E-11,  avg # of iterations =  1.0

     negative rho (up, down):  1.857E-03 0.000E+00

     total cpu time spent up to now is        7.9 secs

     End of self-consistent calculation

          k = 0.0000 0.0000 0.0000 (  2402 PWs)   bands (ev):

   -23.7375 -10.7121  -7.2981  -7.2981   0.4196

     occupation numbers 
     1.0000   1.0000   1.0000   1.0000   0.0000

     the Fermi energy is    -5.4836 ev

!    total energy              =     -35.96628448 Ry
     Harris-Foulkes estimate   =     -35.96628448 Ry
     estimated scf accuracy    <          8.3E-10 Ry

     convergence has been achieved in   1 iterations

     Using ACE for calculation of exact exchange

!!   total energy              =     -35.96628448 Ry
     Harris-Foulkes estimate   =     -35.96628448 Ry
     est. exchange err (dexx)  =          3.8E-10 Ry
     - averaged Fock potential =       2.94546755 Ry
     + Fock energy (ACE)       =      -1.47273120 Ry

     EXX self-consistency reached

     negative rho (up, down):  1.857E-03 0.000E+00

     Forces acting on atoms (cartesian axes, Ry/au):

     atom    1 type  1   force =     0.00000000    0.00000000    0.00000000
     atom    2 type  2   force =     0.00000000    0.00000000    0.00000000
     The non-local contrib.  to forces
     atom    1 type  1   force =     0.00000000    0.00000000    0.00000000
     atom    2 type  2   force =     0.00000000    0.00000000    0.00000000
     The ionic contribution  to forces
     atom    1 type  1   force =    -0.00000148    0.00000086   -0.00000000
     atom    2 type  2   force =     0.00000148   -0.00000086   -0.00000000
     The local contribution  to forces
     atom    1 type  1   force =     0.00000147   -0.00000085   -0.00000002
     atom    2 type  2   force =    -0.00000171    0.00000099   -0.00000003
     The core correction contribution to forces
     atom    1 type  1   force =     0.00000002   -0.00000001   -0.00000000
     atom    2 type  2   force =     0.00000001   -0.00000000    0.00000000
     The Hubbard contrib.    to forces
     atom    1 type  1   force =     0.00000000    0.00000000    0.00000000
     atom    2 type  2   force =     0.00000000    0.00000000    0.00000000
     The SCF correction term to forces
     atom    1 type  1   force =    -0.00000000    0.00000000    0.00000002
     atom    2 type  2   force =     0.00000000   -0.00000000    0.00000005

     Total force =     0.000000     Total SCF correction =     0.000000


     Computing stress (Cartesian axis) and pressure


     negative rho (up, down):  1.857E-03 0.000E+00
     Message from routine exx_stress:
     USPP stress not tested
          total   stress  (Ry/bohr**3)                   (kbar)     P=   38.41
   0.00019717   0.00000000   0.00000000         29.00      0.00      0.00
   0.00000000   0.00019717   0.00000000          0.00     29.00      0.00
   0.00000000  -0.00000000   0.00038907          0.00     -0.00     57.23

     kinetic stress (kbar)   2133.91      0.00     -0.00
                                0.00   2133.91      0.00
                               -0.00      0.00   2026.32

     local   stress (kbar) -42108.32     -0.00     -0.00
                               -0.00 -42108.32      0.00
                               -0.00      0.00  42199.08

     nonloc. stress (kbar)    -32.12     -0.00     -0.00
                               -0.00    -32.12      0.00
                               -0.00      0.00     -7.80

     hartree stress (kbar)  20185.89      0.00      0.00
                                0.00  20185.89     -0.00
                                0.00     -0.00 -19746.32

     exc-cor stress (kbar)   -154.92      0.00     -0.00
                                0.00   -154.92      0.00
                               -0.00      0.00   -162.52

     corecor stress (kbar)   -202.43     -0.00     -0.00
                               -0.00   -202.43      0.00
                               -0.00      0.00   -191.86

     ewald   stress (kbar)  20321.98      0.00     -0.00
                                0.00  20321.98      0.00
                               -0.00      0.00 -24000.47

     hubbard stress (kbar)      0.00      0.00      0.00
                                0.00      0.00      0.00
                                0.00      0.00      0.00

     london  stress (kbar)      0.00      0.00      0.00
                                0.00      0.00      0.00
                                0.00      0.00      0.00

     DFT-D3  stress (kbar)      0.00      0.00      0.00
                                0.00      0.00      0.00
                                0.00      0.00      0.00

     XDM     stress (kbar)      0.00      0.00      0.00
                                0.00      0.00      0.00
                                0.00      0.00      0.00

     dft-nl  stress (kbar)      0.00      0.00      0.00
                                0.00      0.00      0.00
                                0.00      0.00      0.00

     TS-vdW  stress (kbar)      0.00      0.00      0.00
                                0.00      0.00      0.00
                                0.00      0.00      0.00


     EXX     stress (kbar)   -114.99     -0.00     -0.00
                               -0.00   -114.99      0.00
                               -0.00      0.00    -59.20



     Writing output data file hBN.save/
 
     init_run     :      0.17s CPU      0.25s WALL (       1 calls)
     electrons    :      3.41s CPU      5.63s WALL (       6 calls)
     forces       :      0.08s CPU      0.08s WALL (       1 calls)
     stress       :      0.16s CPU      0.17s WALL (       1 calls)

     Called by init_run:
     wfcinit      :      0.01s CPU      0.06s WALL (       1 calls)
     wfcinit:atom :      0.00s CPU      0.00s WALL (       1 calls)
     wfcinit:wfcr :      0.01s CPU      0.02s WALL (       1 calls)
     potinit      :      0.09s CPU      0.12s WALL (       1 calls)
     hinit0       :      0.06s CPU      0.06s WALL (       1 calls)

     Called by electrons:
     c_bands      :      0.27s CPU      1.09s WALL (      37 calls)
     sum_band     :      0.10s CPU      0.11s WALL (      37 calls)
     v_of_rho     :      1.25s CPU      1.27s WALL (      38 calls)
     v_h          :      0.01s CPU      0.01s WALL (      38 calls)
     v_xc         :      1.30s CPU      1.32s WALL (      40 calls)
     newd         :      0.06s CPU      0.06s WALL (      37 calls)
     PAW_pot      :      1.79s CPU      1.84s WALL (      38 calls)
     mix_rho      :      0.03s CPU      0.03s WALL (      37 calls)

     Called by c_bands:
     init_us_2    :      0.01s CPU      0.01s WALL (     111 calls)
     regterg      :      0.26s CPU      0.27s WALL (      37 calls)

     Called by sum_band:
     sum_band:bec :      0.00s CPU      0.00s WALL (      37 calls)
     addusdens    :      0.06s CPU      0.06s WALL (      37 calls)

     Called by *egterg:
     h_psi        :      0.12s CPU      0.13s WALL (     116 calls)
     s_psi        :      0.00s CPU      0.00s WALL (     116 calls)
     g_psi        :      0.00s CPU      0.00s WALL (      78 calls)
     rdiaghg      :      0.11s CPU      0.12s WALL (     109 calls)
     regterg:over :      0.01s CPU      0.01s WALL (      78 calls)
     regterg:upda :      0.00s CPU      0.00s WALL (      78 calls)
     regterg:last :      0.00s CPU      0.00s WALL (      42 calls)
     rdiaghg:chol :      0.01s CPU      0.01s WALL (     109 calls)
     rdiaghg:inve :      0.00s CPU      0.00s WALL (     109 calls)
     rdiaghg:para :      0.01s CPU      0.01s WALL (     218 calls)

     Called by h_psi:
     h_psi:pot    :      0.12s CPU      0.13s WALL (     116 calls)
     h_psi:calbec :      0.00s CPU      0.01s WALL (     116 calls)
     vloc_psi     :      0.11s CPU      0.12s WALL (     116 calls)
     add_vuspsi   :      0.00s CPU      0.00s WALL (     116 calls)

     General routines
     calbec       :      0.04s CPU      0.04s WALL (     264 calls)
     fft          :      0.21s CPU      0.21s WALL (     355 calls)
     ffts         :      0.01s CPU      0.01s WALL (      37 calls)
     fftw         :      0.12s CPU      0.13s WALL (     713 calls)
     fftc         :      0.03s CPU      0.04s WALL (     130 calls)
     fftcw        :      0.01s CPU      0.01s WALL (      71 calls)
 
     Parallel routines
     fft_scatt_xy :      0.02s CPU      0.02s WALL (    1306 calls)
     fft_scatt_yz :      0.19s CPU      0.20s WALL (    1306 calls)

     EXX routines
     exx_grid     :      0.00s CPU      0.00s WALL (       1 calls)
     exxinit      :      0.63s CPU      0.63s WALL (       6 calls)
     vexx         :      0.10s CPU      0.11s WALL (       6 calls)
     matcalc      :      0.00s CPU      0.00s WALL (     100 calls)
     aceupdate    :      0.00s CPU      0.00s WALL (       6 calls)
     vexxace      :      0.00s CPU      0.01s WALL (      83 calls)
     aceinit      :      0.10s CPU      0.11s WALL (       6 calls)

     EXX+US  routines
     becxx        :      0.00s CPU      0.00s WALL (       6 calls)
     addusxx      :      0.02s CPU      0.02s WALL (     120 calls)
     newdxx       :      0.02s CPU      0.02s WALL (     120 calls)
     qvan_init    :      0.01s CPU      0.01s WALL (       6 calls)
     nlxx_pot     :      0.00s CPU      0.00s WALL (      30 calls)

     EXX+PAW routines
     PAW_newdxx   :      0.00s CPU      0.00s WALL (     120 calls)

     PAW routines
     PAW_pot      :      1.79s CPU      1.84s WALL (      38 calls)
     PAW_symme    :      0.01s CPU      0.01s WALL (      74 calls)
 
     PWSCF        :      5.60s CPU     10.06s WALL

 
   This run was terminated on:  11:58:57  14Jan2021            

=------------------------------------------------------------------------------=
   JOB DONE.
=------------------------------------------------------------------------------=
