
     Program PWSCF v.6.4.1 starts on 14Jan2021 at 12: 0: 3 

     This program is part of the open-source Quantum ESPRESSO suite
     for quantum simulation of materials; please cite
         "P. Giannozzi et al., J. Phys.:Condens. Matter 21 395502 (2009);
         "P. Giannozzi et al., J. Phys.:Condens. Matter 29 465901 (2017);
          URL http://www.quantum-espresso.org", 
     in publications or presentations arising from this work. More details at
     http://www.quantum-espresso.org/quote

     Parallel version (MPI), running on    16 processors

     MPI processes distributed on     1 nodes
     R & G space division:  proc/nbgrp/npool/nimage =      16
     Waiting for input...
     Reading input from standard input
Warning: card &IONS ignored
Warning: card     ION_DYNAMICS="BFGS" ignored
Warning: card / ignored

     Current dimensions of program PWSCF are:
     Max number of different atomic species (ntypx) = 10
     Max number of k-points (npk) =  40000
     Max angular momentum in pseudopotentials (lmaxx) =  3

     IMPORTANT: XC functional enforced from input :
     Exchange-correlation      = HSE ( 1  4 12  4 0 0)
     EXX-fraction              =        0.25
     Using LIBXC version       =    4   3   4
     Any further DFT definition will be discarded
     Please, verify this is what you really want

               file N.pbe-n-kjpaw_psl.1.0.0.UPF: wavefunction(s)  2S renormalized

     gamma-point specific algorithms are used
     Message from routine setup :
     BEWARE: nonlinear core correction is not consistent with hybrid XC

     Subspace diagonalization in iterative solution of the eigenvalue problem:
     one sub-group per band group will be used
     scalapack distributed-memory algorithm (size of sub-group:  2*  2 procs)

     EXX: grid of k+q points same as grid of k-points
 
     Parallelization info
     --------------------
     sticks:   dense  smooth     PW     G-vecs:    dense   smooth      PW
     Min          18      18      4                 2306     2306     272
     Max          20      20      6                 2420     2420     330
     Sum         313     313     85                38167    38167    4875
 


     bravais-lattice index     =            4
     lattice parameter (alat)  =       4.8849  a.u.
     unit-cell volume          =     806.5164 (a.u.)^3
     number of atoms/cell      =            2
     number of atomic types    =            2
     number of electrons       =         8.00
     number of Kohn-Sham states=            5
     kinetic-energy cutoff     =      50.0000  Ry
     charge density cutoff     =     200.0000  Ry
     cutoff for Fock operator  =     200.0000  Ry
     convergence threshold     =      1.0E-08
     mixing beta               =       0.3100
     number of iterations used =            8  plain     mixing
     Exchange-correlation      = HSE ( 1  4 12  4 0 0)
     EXX-fraction              =        0.25
     Using LIBXC version       =    4   3   4

     celldm(1)=   4.884942  celldm(2)=   0.000000  celldm(3)=   7.989220
     celldm(4)=   0.000000  celldm(5)=   0.000000  celldm(6)=   0.000000

     crystal axes: (cart. coord. in units of alat)
               a(1) = (   1.000000   0.000000   0.000000 )  
               a(2) = (  -0.500000   0.866025   0.000000 )  
               a(3) = (   0.000000   0.000000   7.989220 )  

     reciprocal axes: (cart. coord. in units 2 pi/alat)
               b(1) = (  1.000000  0.577350  0.000000 )  
               b(2) = (  0.000000  1.154701  0.000000 )  
               b(3) = (  0.000000  0.000000  0.125169 )  


     PseudoPot. # 1 for B  read from file:
     ./pseudo/B.pbe-n-kjpaw_psl.1.0.0.UPF
     MD5 check sum: 8c825a5969375aca5c2c6ad5945b3059
     Pseudo is Projector augmented-wave + core cor, Zval =  3.0
     Generated using "atomic" code by A. Dal Corso v.6.3
     Shape of augmentation charge: PSQ
     Using radial grid of 1059 points,  4 beta functions with: 
                l(1) =   0
                l(2) =   0
                l(3) =   1
                l(4) =   1
     Q(r) pseudized with 0 coefficients 


     PseudoPot. # 2 for N  read from file:
     ./pseudo/N.pbe-n-kjpaw_psl.1.0.0.UPF
     MD5 check sum: 14c48229446f9f2d411169a3abcbc3fa
     Pseudo is Projector augmented-wave + core cor, Zval =  5.0
     Generated using "atomic" code by A. Dal Corso v.6.3
     Shape of augmentation charge: PSQ
     Using radial grid of 1085 points,  4 beta functions with: 
                l(1) =   0
                l(2) =   0
                l(3) =   1
                l(4) =   1
     Q(r) pseudized with 0 coefficients 


     atomic species   valence    mass     pseudopotential
        B              3.00    10.00000     B ( 1.00)
        N              5.00    14.00000     N ( 1.00)

     12 Sym. Ops. (no inversion) found


                                    s                        frac. trans.

      isym =  1     identity                                     

 cryst.   s( 1) = (     1          0          0      )
                  (     0          1          0      )
                  (     0          0          1      )

 cart.    s( 1) = (  1.0000000  0.0000000  0.0000000 )
                  (  0.0000000  1.0000000  0.0000000 )
                  (  0.0000000  0.0000000  1.0000000 )


      isym =  2     180 deg rotation - cart. axis [0,1,0]        

 cryst.   s( 2) = (    -1          0          0      )
                  (     1          1          0      )
                  (     0          0         -1      )

 cart.    s( 2) = ( -1.0000000  0.0000000  0.0000000 )
                  (  0.0000000  1.0000000  0.0000000 )
                  (  0.0000000  0.0000000 -1.0000000 )


      isym =  3     120 deg rotation - cryst. axis [0,0,1]       

 cryst.   s( 3) = (     0          1          0      )
                  (    -1         -1          0      )
                  (     0          0          1      )

 cart.    s( 3) = ( -0.5000000 -0.8660254  0.0000000 )
                  (  0.8660254 -0.5000000  0.0000000 )
                  (  0.0000000  0.0000000  1.0000000 )


      isym =  4     120 deg rotation - cryst. axis [0,0,-1]      

 cryst.   s( 4) = (    -1         -1          0      )
                  (     1          0          0      )
                  (     0          0          1      )

 cart.    s( 4) = ( -0.5000000  0.8660254  0.0000000 )
                  ( -0.8660254 -0.5000000  0.0000000 )
                  (  0.0000000  0.0000000  1.0000000 )


      isym =  5     180 deg rotation - cryst. axis [1,-1,0]      

 cryst.   s( 5) = (     0         -1          0      )
                  (    -1          0          0      )
                  (     0          0         -1      )

 cart.    s( 5) = (  0.5000000 -0.8660254  0.0000000 )
                  ( -0.8660254 -0.5000000  0.0000000 )
                  (  0.0000000  0.0000000 -1.0000000 )


      isym =  6     180 deg rotation - cryst. axis [2,1,0]       

 cryst.   s( 6) = (     1          1          0      )
                  (     0         -1          0      )
                  (     0          0         -1      )

 cart.    s( 6) = (  0.5000000  0.8660254  0.0000000 )
                  (  0.8660254 -0.5000000  0.0000000 )
                  (  0.0000000  0.0000000 -1.0000000 )


      isym =  7     inv. 180 deg rotation - cart. axis [0,0,1]   

 cryst.   s( 7) = (     1          0          0      )
                  (     0          1          0      )
                  (     0          0         -1      )

 cart.    s( 7) = (  1.0000000  0.0000000  0.0000000 )
                  (  0.0000000  1.0000000  0.0000000 )
                  (  0.0000000  0.0000000 -1.0000000 )


      isym =  8     inv. 180 deg rotation - cart. axis [1,0,0]   

 cryst.   s( 8) = (    -1          0          0      )
                  (     1          1          0      )
                  (     0          0          1      )

 cart.    s( 8) = ( -1.0000000  0.0000000  0.0000000 )
                  (  0.0000000  1.0000000  0.0000000 )
                  (  0.0000000  0.0000000  1.0000000 )


      isym =  9     inv.  60 deg rotation - cryst. axis [0,0,1]  

 cryst.   s( 9) = (    -1         -1          0      )
                  (     1          0          0      )
                  (     0          0         -1      )

 cart.    s( 9) = ( -0.5000000  0.8660254  0.0000000 )
                  ( -0.8660254 -0.5000000  0.0000000 )
                  (  0.0000000  0.0000000 -1.0000000 )


      isym = 10     inv.  60 deg rotation - cryst. axis [0,0,-1] 

 cryst.   s(10) = (     0          1          0      )
                  (    -1         -1          0      )
                  (     0          0         -1      )

 cart.    s(10) = ( -0.5000000 -0.8660254  0.0000000 )
                  (  0.8660254 -0.5000000  0.0000000 )
                  (  0.0000000  0.0000000 -1.0000000 )


      isym = 11     inv. 180 deg rotation - cryst. axis [0,1,0]  

 cryst.   s(11) = (     1          1          0      )
                  (     0         -1          0      )
                  (     0          0          1      )

 cart.    s(11) = (  0.5000000  0.8660254  0.0000000 )
                  (  0.8660254 -0.5000000  0.0000000 )
                  (  0.0000000  0.0000000  1.0000000 )


      isym = 12     inv. 180 deg rotation - cryst. axis [1,1,0]  

 cryst.   s(12) = (     0         -1          0      )
                  (    -1          0          0      )
                  (     0          0          1      )

 cart.    s(12) = (  0.5000000 -0.8660254  0.0000000 )
                  ( -0.8660254 -0.5000000  0.0000000 )
                  (  0.0000000  0.0000000  1.0000000 )


     point group D_3h (-62m)
     there are  6 classes
     the character table:

       E     2C3   3C2   s_h   2S3   3s_v 
A'_1   1.00  1.00  1.00  1.00  1.00  1.00
A'_2   1.00  1.00 -1.00  1.00  1.00 -1.00
E'     2.00 -1.00  0.00  2.00 -1.00  0.00
A''1   1.00  1.00  1.00 -1.00 -1.00 -1.00
A''2   1.00  1.00 -1.00 -1.00 -1.00  1.00
E''    2.00 -1.00  0.00 -2.00  1.00  0.00

     the symmetry operations in each class and the name of the first element:

     E        1
          identity                                               
     2C3      3    4
          120 deg rotation - cryst. axis [0,0,1]                 
     3C2      2    6    5
          180 deg rotation - cart. axis [0,1,0]                  
     s_h      7
          inv. 180 deg rotation - cart. axis [0,0,1]             
     2S3      9   10
          inv.  60 deg rotation - cryst. axis [0,0,1]            
     3s_v     8   11   12
          inv. 180 deg rotation - cart. axis [1,0,0]             

   Cartesian axes

     site n.     atom                  positions (alat units)
         1           B   tau(   1) = (   0.5000000   0.2886751   0.0000000  )
         2           N   tau(   2) = (  -0.0000000   0.5773503   0.0000000  )

   Crystallographic axes

     site n.     atom                  positions (cryst. coord.)
         1           B   tau(   1) = (  0.6666667  0.3333333  0.0000000  )
         2           N   tau(   2) = (  0.3333333  0.6666667  0.0000000  )

     number of k points=     1  gaussian smearing, width (Ry)=  0.0100
                       cart. coord. in units 2pi/alat
        k(    1) = (   0.0000000   0.0000000   0.0000000), wk =   2.0000000

                       cryst. coord.
        k(    1) = (   0.0000000   0.0000000   0.0000000), wk =   2.0000000

     Dense  grid:    19084 G-vectors     FFT dimensions: (  24,  24, 180)

     Dynamical RAM for                 wfc:       0.01 MB

     Dynamical RAM for     wfc (w. buffer):       0.01 MB

     Dynamical RAM for                 EXX:       2.69 MB

     Dynamical RAM for           str. fact:       0.04 MB

     Dynamical RAM for           local pot:       0.00 MB

     Dynamical RAM for          nlocal pot:       0.04 MB

     Dynamical RAM for                qrad:       0.50 MB

     Dynamical RAM for          rho,v,vnew:       0.21 MB

     Dynamical RAM for               rhoin:       0.07 MB

     Dynamical RAM for            rho*nmix:       0.29 MB

     Dynamical RAM for           G-vectors:       0.08 MB

     Dynamical RAM for          h,s,v(r/c):       0.00 MB

     Dynamical RAM for          <psi|beta>:       0.00 MB

     Dynamical RAM for                 psi:       0.05 MB

     Dynamical RAM for                hpsi:       0.05 MB

     Dynamical RAM for                spsi:       0.05 MB

     Dynamical RAM for      wfcinit/wfcrot:       0.04 MB

     Dynamical RAM for           addusdens:       0.81 MB

     Dynamical RAM for          addusforce:       0.87 MB

     Dynamical RAM for         addusstress:       0.92 MB

     Estimated static dynamical RAM per process >       4.26 MB

     Estimated max dynamical RAM per process >       5.17 MB

     Estimated total dynamical RAM >      82.75 MB

     Check: negative core charge=   -0.000009

     Initial potential from superposition of free atoms

     starting charge    7.99971, renormalised to    8.00000

     negative rho (up, down):  6.080E-04 0.000E+00
     Starting wfcs are    8 randomized atomic wfcs

     total cpu time spent up to now is        1.6 secs

     Self-consistent Calculation

     iteration #  1     ecut=    50.00 Ry     beta= 0.31
     Davidson diagonalization with overlap
     ethr =  1.00E-02,  avg # of iterations =  3.0

     negative rho (up, down):  8.862E-04 0.000E+00

     total cpu time spent up to now is        1.8 secs

     total energy              =     -39.37536938 Ry
     Harris-Foulkes estimate   =     -39.59069610 Ry
     estimated scf accuracy    <       0.57185968 Ry

     iteration #  2     ecut=    50.00 Ry     beta= 0.31
     Davidson diagonalization with overlap
     ethr =  7.15E-03,  avg # of iterations =  2.0

     negative rho (up, down):  1.177E-03 0.000E+00

     total cpu time spent up to now is        1.9 secs

     total energy              =     -39.42138986 Ry
     Harris-Foulkes estimate   =     -39.43938744 Ry
     estimated scf accuracy    <       0.07931263 Ry

     iteration #  3     ecut=    50.00 Ry     beta= 0.31
     Davidson diagonalization with overlap
     ethr =  9.91E-04,  avg # of iterations =  3.0

     negative rho (up, down):  1.426E-03 0.000E+00

     total cpu time spent up to now is        2.0 secs

     total energy              =     -39.42455909 Ry
     Harris-Foulkes estimate   =     -39.43318299 Ry
     estimated scf accuracy    <       0.03122656 Ry

     iteration #  4     ecut=    50.00 Ry     beta= 0.31
     Davidson diagonalization with overlap
     ethr =  3.90E-04,  avg # of iterations =  2.0

     negative rho (up, down):  1.634E-03 0.000E+00

     total cpu time spent up to now is        2.1 secs

     total energy              =     -39.42791330 Ry
     Harris-Foulkes estimate   =     -39.42761508 Ry
     estimated scf accuracy    <       0.00390302 Ry

     iteration #  5     ecut=    50.00 Ry     beta= 0.31
     Davidson diagonalization with overlap
     ethr =  4.88E-05,  avg # of iterations =  3.0

     negative rho (up, down):  1.630E-03 0.000E+00

     total cpu time spent up to now is        2.3 secs

     total energy              =     -39.42813841 Ry
     Harris-Foulkes estimate   =     -39.42851922 Ry
     estimated scf accuracy    <       0.00156817 Ry

     iteration #  6     ecut=    50.00 Ry     beta= 0.31
     Davidson diagonalization with overlap
     ethr =  1.96E-05,  avg # of iterations =  1.0

     negative rho (up, down):  1.640E-03 0.000E+00

     total cpu time spent up to now is        2.4 secs

     total energy              =     -39.42770120 Ry
     Harris-Foulkes estimate   =     -39.42816070 Ry
     estimated scf accuracy    <       0.00089030 Ry

     iteration #  7     ecut=    50.00 Ry     beta= 0.31
     Davidson diagonalization with overlap
     ethr =  1.11E-05,  avg # of iterations =  2.0

     negative rho (up, down):  1.640E-03 0.000E+00

     total cpu time spent up to now is        2.5 secs

     total energy              =     -39.42789056 Ry
     Harris-Foulkes estimate   =     -39.42792532 Ry
     estimated scf accuracy    <       0.00011933 Ry

     iteration #  8     ecut=    50.00 Ry     beta= 0.31
     Davidson diagonalization with overlap
     ethr =  1.49E-06,  avg # of iterations =  1.0

     negative rho (up, down):  1.640E-03 0.000E+00

     total cpu time spent up to now is        2.7 secs

     total energy              =     -39.42787632 Ry
     Harris-Foulkes estimate   =     -39.42789665 Ry
     estimated scf accuracy    <       0.00004440 Ry

     iteration #  9     ecut=    50.00 Ry     beta= 0.31
     Davidson diagonalization with overlap
     ethr =  5.55E-07,  avg # of iterations =  2.0

     negative rho (up, down):  1.641E-03 0.000E+00

     total cpu time spent up to now is        2.8 secs

     total energy              =     -39.42789098 Ry
     Harris-Foulkes estimate   =     -39.42789048 Ry
     estimated scf accuracy    <       0.00000398 Ry

     iteration # 10     ecut=    50.00 Ry     beta= 0.31
     Davidson diagonalization with overlap
     ethr =  4.98E-08,  avg # of iterations =  1.0

     negative rho (up, down):  1.642E-03 0.000E+00

     total cpu time spent up to now is        2.9 secs

     total energy              =     -39.42789140 Ry
     Harris-Foulkes estimate   =     -39.42789126 Ry
     estimated scf accuracy    <       0.00000490 Ry

     iteration # 11     ecut=    50.00 Ry     beta= 0.31
     Davidson diagonalization with overlap
     ethr =  4.98E-08,  avg # of iterations =  1.0

     negative rho (up, down):  1.642E-03 0.000E+00

     total cpu time spent up to now is        3.1 secs

     total energy              =     -39.42789006 Ry
     Harris-Foulkes estimate   =     -39.42789148 Ry
     estimated scf accuracy    <       0.00000585 Ry

     iteration # 12     ecut=    50.00 Ry     beta= 0.31
     Davidson diagonalization with overlap
     ethr =  4.98E-08,  avg # of iterations =  1.0

     negative rho (up, down):  1.643E-03 0.000E+00

     total cpu time spent up to now is        3.2 secs

     total energy              =     -39.42788928 Ry
     Harris-Foulkes estimate   =     -39.42789016 Ry
     estimated scf accuracy    <       0.00000278 Ry

     iteration # 13     ecut=    50.00 Ry     beta= 0.31
     Davidson diagonalization with overlap
     ethr =  3.48E-08,  avg # of iterations =  2.0

     negative rho (up, down):  1.643E-03 0.000E+00

     total cpu time spent up to now is        3.4 secs

     total energy              =     -39.42788954 Ry
     Harris-Foulkes estimate   =     -39.42788959 Ry
     estimated scf accuracy    <       0.00000023 Ry

     iteration # 14     ecut=    50.00 Ry     beta= 0.31
     Davidson diagonalization with overlap
     ethr =  2.86E-09,  avg # of iterations =  1.0

     negative rho (up, down):  1.643E-03 0.000E+00

     total cpu time spent up to now is        3.5 secs

     total energy              =     -39.42788950 Ry
     Harris-Foulkes estimate   =     -39.42788955 Ry
     estimated scf accuracy    <       0.00000010 Ry

     iteration # 15     ecut=    50.00 Ry     beta= 0.31
     Davidson diagonalization with overlap
     ethr =  1.26E-09,  avg # of iterations =  2.0

     negative rho (up, down):  1.643E-03 0.000E+00

     total cpu time spent up to now is        3.7 secs

     End of self-consistent calculation

          k = 0.0000 0.0000 0.0000 (  2438 PWs)   bands (ev):

   -21.5390  -9.4720  -5.6496  -5.6496   0.1692

     occupation numbers 
     1.0000   1.0000   1.0000   1.0000   0.0000

     the Fermi energy is    -2.3402 ev

!    total energy              =     -39.42788953 Ry
     Harris-Foulkes estimate   =     -39.42788953 Ry
     estimated scf accuracy    <          2.9E-09 Ry

     convergence has been achieved in  15 iterations

     Using ACE for calculation of exact exchange

     EXX grid:    19084 G-vectors     FFT dimensions: (  24,  24, 180)

     negative rho (up, down):  1.643E-03 0.000E+00

     EXX: now go back to refine exchange calculation

     total cpu time spent up to now is        4.6 secs

     Self-consistent Calculation

     iteration #  1     ecut=    50.00 Ry     beta= 0.31
     Davidson diagonalization with overlap
     ethr =  1.26E-09,  avg # of iterations =  8.0

     negative rho (up, down):  1.676E-03 0.000E+00

     total cpu time spent up to now is        4.8 secs

     total energy              =     -36.13899865 Ry
     Harris-Foulkes estimate   =     -36.13931240 Ry
     estimated scf accuracy    <       0.00080045 Ry

     iteration #  2     ecut=    50.00 Ry     beta= 0.31
     Davidson diagonalization with overlap
     ethr =  1.00E-05,  avg # of iterations =  4.0

     negative rho (up, down):  1.685E-03 0.000E+00

     total cpu time spent up to now is        4.9 secs

     total energy              =     -35.96684577 Ry
     Harris-Foulkes estimate   =     -35.96723191 Ry
     estimated scf accuracy    <       0.00283917 Ry

     iteration #  3     ecut=    50.00 Ry     beta= 0.31
     Davidson diagonalization with overlap
     ethr =  1.00E-05,  avg # of iterations =  1.0

     negative rho (up, down):  1.759E-03 0.000E+00

     total cpu time spent up to now is        5.0 secs

     total energy              =     -35.96555546 Ry
     Harris-Foulkes estimate   =     -35.96686340 Ry
     estimated scf accuracy    <       0.00195438 Ry

     iteration #  4     ecut=    50.00 Ry     beta= 0.31
     Davidson diagonalization with overlap
     ethr =  1.00E-05,  avg # of iterations =  3.0

     negative rho (up, down):  1.812E-03 0.000E+00

     total cpu time spent up to now is        5.1 secs

     total energy              =     -35.96623892 Ry
     Harris-Foulkes estimate   =     -35.96614920 Ry
     estimated scf accuracy    <       0.00025331 Ry

     iteration #  5     ecut=    50.00 Ry     beta= 0.31
     Davidson diagonalization with overlap
     ethr =  3.17E-06,  avg # of iterations =  2.0

     negative rho (up, down):  1.791E-03 0.000E+00

     total cpu time spent up to now is        5.2 secs

     total energy              =     -35.96593828 Ry
     Harris-Foulkes estimate   =     -35.96626630 Ry
     estimated scf accuracy    <       0.00054244 Ry

     iteration #  6     ecut=    50.00 Ry     beta= 0.31
     Davidson diagonalization with overlap
     ethr =  3.17E-06,  avg # of iterations =  2.0

     negative rho (up, down):  1.794E-03 0.000E+00

     total cpu time spent up to now is        5.3 secs

     total energy              =     -35.96605531 Ry
     Harris-Foulkes estimate   =     -35.96605599 Ry
     estimated scf accuracy    <       0.00000200 Ry

     iteration #  7     ecut=    50.00 Ry     beta= 0.31
     Davidson diagonalization with overlap
     ethr =  2.50E-08,  avg # of iterations =  2.0

     negative rho (up, down):  1.794E-03 0.000E+00

     total cpu time spent up to now is        5.5 secs

     total energy              =     -35.96605619 Ry
     Harris-Foulkes estimate   =     -35.96605643 Ry
     estimated scf accuracy    <       0.00000089 Ry

     iteration #  8     ecut=    50.00 Ry     beta= 0.31
     Davidson diagonalization with overlap
     ethr =  1.11E-08,  avg # of iterations =  1.0

     negative rho (up, down):  1.794E-03 0.000E+00

     total cpu time spent up to now is        5.6 secs

     total energy              =     -35.96605595 Ry
     Harris-Foulkes estimate   =     -35.96605621 Ry
     estimated scf accuracy    <       0.00000049 Ry

     iteration #  9     ecut=    50.00 Ry     beta= 0.31
     Davidson diagonalization with overlap
     ethr =  6.08E-09,  avg # of iterations =  2.0

     negative rho (up, down):  1.794E-03 0.000E+00

     total cpu time spent up to now is        5.8 secs

     End of self-consistent calculation

          k = 0.0000 0.0000 0.0000 (  2438 PWs)   bands (ev):

   -23.6016 -10.6102  -7.3620  -7.3620   0.3738

     occupation numbers 
     1.0000   1.0000   1.0000   1.0000   0.0000

     the Fermi energy is    -5.4840 ev

!    total energy              =     -35.96605603 Ry
     Harris-Foulkes estimate   =     -35.96605603 Ry
     estimated scf accuracy    <          6.3E-09 Ry

     convergence has been achieved in   9 iterations

     Using ACE for calculation of exact exchange

     total energy              =     -35.96635820 Ry
     Harris-Foulkes estimate   =     -35.96635820 Ry
     est. exchange err (dexx)  =       0.00030218 Ry
     - averaged Fock potential =       2.92696210 Ry
     + Fock energy (ACE)       =      -1.46293341 Ry

     EXX: now go back to refine exchange calculation

     total cpu time spent up to now is        6.0 secs

     Self-consistent Calculation

     iteration #  1     ecut=    50.00 Ry     beta= 0.31
     Davidson diagonalization with overlap
     ethr =  6.08E-09,  avg # of iterations =  4.0

     negative rho (up, down):  1.794E-03 0.000E+00

     total cpu time spent up to now is        6.1 secs

     total energy              =     -35.96638620 Ry
     Harris-Foulkes estimate   =     -35.96639046 Ry
     estimated scf accuracy    <       0.00001161 Ry

     iteration #  2     ecut=    50.00 Ry     beta= 0.31
     Davidson diagonalization with overlap
     ethr =  1.45E-07,  avg # of iterations =  1.0

     negative rho (up, down):  1.794E-03 0.000E+00

     total cpu time spent up to now is        6.2 secs

     total energy              =     -35.96638455 Ry
     Harris-Foulkes estimate   =     -35.96638661 Ry
     estimated scf accuracy    <       0.00000359 Ry

     iteration #  3     ecut=    50.00 Ry     beta= 0.31
     Davidson diagonalization with overlap
     ethr =  4.48E-08,  avg # of iterations =  2.0

     negative rho (up, down):  1.794E-03 0.000E+00

     total cpu time spent up to now is        6.3 secs

     total energy              =     -35.96638484 Ry
     Harris-Foulkes estimate   =     -35.96638496 Ry
     estimated scf accuracy    <       0.00000022 Ry

     iteration #  4     ecut=    50.00 Ry     beta= 0.31
     Davidson diagonalization with overlap
     ethr =  2.75E-09,  avg # of iterations =  2.0

     negative rho (up, down):  1.794E-03 0.000E+00

     total cpu time spent up to now is        6.5 secs

     total energy              =     -35.96638489 Ry
     Harris-Foulkes estimate   =     -35.96638491 Ry
     estimated scf accuracy    <       0.00000008 Ry

     iteration #  5     ecut=    50.00 Ry     beta= 0.31
     Davidson diagonalization with overlap
     ethr =  9.38E-10,  avg # of iterations =  1.0

     negative rho (up, down):  1.794E-03 0.000E+00

     total cpu time spent up to now is        6.6 secs

     total energy              =     -35.96638488 Ry
     Harris-Foulkes estimate   =     -35.96638489 Ry
     estimated scf accuracy    <       0.00000003 Ry

     iteration #  6     ecut=    50.00 Ry     beta= 0.31
     Davidson diagonalization with overlap
     ethr =  3.19E-10,  avg # of iterations =  2.0

     negative rho (up, down):  1.794E-03 0.000E+00

     total cpu time spent up to now is        6.7 secs

     End of self-consistent calculation

          k = 0.0000 0.0000 0.0000 (  2438 PWs)   bands (ev):

   -23.6220 -10.6284  -7.3844  -7.3844   0.3768

     occupation numbers 
     1.0000   1.0000   1.0000   1.0000   0.0000

     the Fermi energy is    -5.4868 ev

!    total energy              =     -35.96638489 Ry
     Harris-Foulkes estimate   =     -35.96638489 Ry
     estimated scf accuracy    <          3.1E-09 Ry

     convergence has been achieved in   6 iterations

     Using ACE for calculation of exact exchange

     total energy              =     -35.96638831 Ry
     Harris-Foulkes estimate   =     -35.96638831 Ry
     est. exchange err (dexx)  =       0.00000343 Ry
     - averaged Fock potential =       2.92570059 Ry
     + Fock energy (ACE)       =      -1.46277060 Ry

     EXX: now go back to refine exchange calculation

     total cpu time spent up to now is        6.8 secs

     Self-consistent Calculation

     iteration #  1     ecut=    50.00 Ry     beta= 0.31
     Davidson diagonalization with overlap
     ethr =  3.19E-10,  avg # of iterations =  4.0

     negative rho (up, down):  1.794E-03 0.000E+00

     total cpu time spent up to now is        7.0 secs

     total energy              =     -35.96638896 Ry
     Harris-Foulkes estimate   =     -35.96638902 Ry
     estimated scf accuracy    <       0.00000020 Ry

     iteration #  2     ecut=    50.00 Ry     beta= 0.31
     Davidson diagonalization with overlap
     ethr =  2.56E-09,  avg # of iterations =  1.0

     negative rho (up, down):  1.795E-03 0.000E+00

     total cpu time spent up to now is        7.1 secs

     total energy              =     -35.96638893 Ry
     Harris-Foulkes estimate   =     -35.96638897 Ry
     estimated scf accuracy    <       0.00000007 Ry

     iteration #  3     ecut=    50.00 Ry     beta= 0.31
     Davidson diagonalization with overlap
     ethr =  9.21E-10,  avg # of iterations =  2.0

     negative rho (up, down):  1.795E-03 0.000E+00

     total cpu time spent up to now is        7.5 secs

     End of self-consistent calculation

          k = 0.0000 0.0000 0.0000 (  2438 PWs)   bands (ev):

   -23.6244 -10.6298  -7.3871  -7.3871   0.3764

     occupation numbers 
     1.0000   1.0000   1.0000   1.0000   0.0000

     the Fermi energy is    -5.4878 ev

!    total energy              =     -35.96638894 Ry
     Harris-Foulkes estimate   =     -35.96638894 Ry
     estimated scf accuracy    <          3.2E-09 Ry

     convergence has been achieved in   3 iterations

     Using ACE for calculation of exact exchange

     total energy              =     -35.96638908 Ry
     Harris-Foulkes estimate   =     -35.96638908 Ry
     est. exchange err (dexx)  =       0.00000014 Ry
     - averaged Fock potential =       2.92552343 Ry
     + Fock energy (ACE)       =      -1.46275297 Ry

     EXX: now go back to refine exchange calculation

     total cpu time spent up to now is        7.8 secs

     Self-consistent Calculation

     iteration #  1     ecut=    50.00 Ry     beta= 0.31
     Davidson diagonalization with overlap
     ethr =  9.21E-10,  avg # of iterations =  2.0

     negative rho (up, down):  1.795E-03 0.000E+00

     total cpu time spent up to now is        7.9 secs

     total energy              =     -35.96638911 Ry
     Harris-Foulkes estimate   =     -35.96638912 Ry
     estimated scf accuracy    <       0.00000002 Ry

     iteration #  2     ecut=    50.00 Ry     beta= 0.31
     Davidson diagonalization with overlap
     ethr =  2.92E-10,  avg # of iterations =  1.0

     negative rho (up, down):  1.795E-03 0.000E+00

     total cpu time spent up to now is        8.1 secs

     End of self-consistent calculation

          k = 0.0000 0.0000 0.0000 (  2438 PWs)   bands (ev):

   -23.6244 -10.6297  -7.3872  -7.3872   0.3764

     occupation numbers 
     1.0000   1.0000   1.0000   1.0000   0.0000

     the Fermi energy is    -5.4878 ev

!    total energy              =     -35.96638911 Ry
     Harris-Foulkes estimate   =     -35.96638912 Ry
     estimated scf accuracy    <          5.0E-09 Ry

     convergence has been achieved in   2 iterations

     Using ACE for calculation of exact exchange

     total energy              =     -35.96638912 Ry
     Harris-Foulkes estimate   =     -35.96638913 Ry
     est. exchange err (dexx)  =       0.00000001 Ry
     - averaged Fock potential =       2.92551347 Ry
     + Fock energy (ACE)       =      -1.46276052 Ry

     EXX: now go back to refine exchange calculation

     total cpu time spent up to now is        8.4 secs

     Self-consistent Calculation

     iteration #  1     ecut=    50.00 Ry     beta= 0.31
     Davidson diagonalization with overlap
     ethr =  2.92E-10,  avg # of iterations =  2.0

     Threshold (ethr) on eigenvalues was too large:
     Diagonalizing with lowered threshold

     Davidson diagonalization with overlap
     ethr =  1.30E-11,  avg # of iterations =  1.0

     negative rho (up, down):  1.795E-03 0.000E+00

     total cpu time spent up to now is        8.6 secs

     End of self-consistent calculation

          k = 0.0000 0.0000 0.0000 (  2438 PWs)   bands (ev):

   -23.6246 -10.6298  -7.3874  -7.3874   0.3763

     occupation numbers 
     1.0000   1.0000   1.0000   1.0000   0.0000

     the Fermi energy is    -5.4878 ev

!    total energy              =     -35.96638913 Ry
     Harris-Foulkes estimate   =     -35.96638913 Ry
     estimated scf accuracy    <          9.1E-10 Ry

     convergence has been achieved in   1 iterations

     Using ACE for calculation of exact exchange

!!   total energy              =     -35.96638913 Ry
     Harris-Foulkes estimate   =     -35.96638913 Ry
     est. exchange err (dexx)  =          4.3E-10 Ry
     - averaged Fock potential =       2.92551567 Ry
     + Fock energy (ACE)       =      -1.46275515 Ry

     EXX self-consistency reached

     negative rho (up, down):  1.795E-03 0.000E+00

     Forces acting on atoms (cartesian axes, Ry/au):

     atom    1 type  1   force =     0.00000000    0.00000000    0.00000000
     atom    2 type  2   force =     0.00000000    0.00000000    0.00000000
     The non-local contrib.  to forces
     atom    1 type  1   force =     0.00000000    0.00000000    0.00000000
     atom    2 type  2   force =     0.00000000    0.00000000    0.00000000
     The ionic contribution  to forces
     atom    1 type  1   force =    -0.00000146    0.00000084    0.00000000
     atom    2 type  2   force =     0.00000146   -0.00000084    0.00000000
     The local contribution  to forces
     atom    1 type  1   force =     0.00000146   -0.00000084    0.00000000
     atom    2 type  2   force =    -0.00000169    0.00000098    0.00000000
     The core correction contribution to forces
     atom    1 type  1   force =     0.00000002   -0.00000001    0.00000000
     atom    2 type  2   force =     0.00000000   -0.00000000   -0.00000000
     The Hubbard contrib.    to forces
     atom    1 type  1   force =     0.00000000    0.00000000    0.00000000
     atom    2 type  2   force =     0.00000000    0.00000000    0.00000000
     The SCF correction term to forces
     atom    1 type  1   force =     0.00000000   -0.00000000   -0.00000000
     atom    2 type  2   force =     0.00000000   -0.00000000   -0.00000001

     Total force =     0.000000     Total SCF correction =     0.000000


     Computing stress (Cartesian axis) and pressure


     negative rho (up, down):  1.795E-03 0.000E+00
     Message from routine exx_stress:
     USPP stress not tested
          total   stress  (Ry/bohr**3)                   (kbar)     P=   25.03
   0.00007196   0.00000000   0.00000000         10.59      0.00      0.00
   0.00000000   0.00007196   0.00000000          0.00     10.59      0.00
   0.00000000   0.00000000   0.00036649          0.00      0.00     53.91

     kinetic stress (kbar)   2054.36      0.00      0.00
                                0.00   2054.36      0.00
                                0.00     -0.00   1957.79

     local   stress (kbar) -40545.07     -0.00     -0.00
                               -0.00 -40545.07     -0.00
                               -0.00     -0.00  40596.99

     nonloc. stress (kbar)    -30.56     -0.00      0.00
                               -0.00    -30.56      0.00
                                0.00      0.00     -6.95

     hartree stress (kbar)  19440.77      0.00      0.00
                                0.00  19440.77      0.00
                                0.00      0.00 -19007.98

     exc-cor stress (kbar)   -148.95      0.00      0.00
                                0.00   -148.95      0.00
                                0.00      0.00   -156.26

     corecor stress (kbar)   -196.20     -0.00     -0.00
                               -0.00   -196.20     -0.00
                               -0.00     -0.00   -186.19

     ewald   stress (kbar)  19547.16      0.00      0.00
                                0.00  19547.16     -0.00
                                0.00     -0.00 -23085.40

     hubbard stress (kbar)      0.00      0.00      0.00
                                0.00      0.00      0.00
                                0.00      0.00      0.00

     london  stress (kbar)      0.00      0.00      0.00
                                0.00      0.00      0.00
                                0.00      0.00      0.00

     DFT-D3  stress (kbar)      0.00      0.00      0.00
                                0.00      0.00      0.00
                                0.00      0.00      0.00

     XDM     stress (kbar)      0.00      0.00      0.00
                                0.00      0.00      0.00
                                0.00      0.00      0.00

     dft-nl  stress (kbar)      0.00      0.00      0.00
                                0.00      0.00      0.00
                                0.00      0.00      0.00

     TS-vdW  stress (kbar)      0.00      0.00      0.00
                                0.00      0.00      0.00
                                0.00      0.00      0.00


     EXX     stress (kbar)   -110.93     -0.00      0.00
                                0.00   -110.93     -0.00
                               -0.00      0.00    -58.10



     Writing output data file hBN.save/
 
     init_run     :      0.18s CPU      0.41s WALL (       1 calls)
     electrons    :      3.28s CPU      6.19s WALL (       6 calls)
     forces       :      0.08s CPU      0.08s WALL (       1 calls)
     stress       :      0.16s CPU      0.17s WALL (       1 calls)

     Called by init_run:
     wfcinit      :      0.01s CPU      0.22s WALL (       1 calls)
     wfcinit:atom :      0.00s CPU      0.00s WALL (       1 calls)
     wfcinit:wfcr :      0.01s CPU      0.02s WALL (       1 calls)
     potinit      :      0.09s CPU      0.11s WALL (       1 calls)
     hinit0       :      0.07s CPU      0.07s WALL (       1 calls)

     Called by electrons:
     c_bands      :      0.26s CPU      1.09s WALL (      37 calls)
     sum_band     :      0.10s CPU      0.11s WALL (      37 calls)
     v_of_rho     :      1.22s CPU      1.24s WALL (      38 calls)
     v_h          :      0.01s CPU      0.01s WALL (      38 calls)
     v_xc         :      1.27s CPU      1.30s WALL (      40 calls)
     newd         :      0.06s CPU      0.07s WALL (      37 calls)
     PAW_pot      :      1.71s CPU      1.75s WALL (      38 calls)
     mix_rho      :      0.03s CPU      0.03s WALL (      37 calls)

     Called by c_bands:
     init_us_2    :      0.01s CPU      0.01s WALL (     111 calls)
     regterg      :      0.25s CPU      0.27s WALL (      37 calls)

     Called by sum_band:
     sum_band:bec :      0.00s CPU      0.00s WALL (      37 calls)
     addusdens    :      0.05s CPU      0.06s WALL (      37 calls)

     Called by *egterg:
     h_psi        :      0.12s CPU      0.13s WALL (     115 calls)
     s_psi        :      0.00s CPU      0.00s WALL (     115 calls)
     g_psi        :      0.00s CPU      0.00s WALL (      77 calls)
     rdiaghg      :      0.11s CPU      0.12s WALL (     108 calls)
     regterg:over :      0.01s CPU      0.01s WALL (      77 calls)
     regterg:upda :      0.00s CPU      0.00s WALL (      77 calls)
     regterg:last :      0.00s CPU      0.00s WALL (      42 calls)
     rdiaghg:chol :      0.01s CPU      0.01s WALL (     108 calls)
     rdiaghg:inve :      0.00s CPU      0.00s WALL (     108 calls)
     rdiaghg:para :      0.01s CPU      0.01s WALL (     216 calls)

     Called by h_psi:
     h_psi:pot    :      0.11s CPU      0.12s WALL (     115 calls)
     h_psi:calbec :      0.00s CPU      0.00s WALL (     115 calls)
     vloc_psi     :      0.11s CPU      0.12s WALL (     115 calls)
     add_vuspsi   :      0.00s CPU      0.00s WALL (     115 calls)

     General routines
     calbec       :      0.02s CPU      0.02s WALL (     263 calls)
     fft          :      0.23s CPU      0.23s WALL (     355 calls)
     ffts         :      0.01s CPU      0.01s WALL (      37 calls)
     fftw         :      0.12s CPU      0.13s WALL (     713 calls)
     fftc         :      0.04s CPU      0.04s WALL (     130 calls)
     fftcw        :      0.01s CPU      0.01s WALL (      71 calls)
 
     Parallel routines
     fft_scatt_xy :      0.02s CPU      0.02s WALL (    1306 calls)
     fft_scatt_yz :      0.21s CPU      0.22s WALL (    1306 calls)

     EXX routines
     exx_grid     :      0.00s CPU      0.00s WALL (       1 calls)
     exxinit      :      0.61s CPU      0.62s WALL (       6 calls)
     vexx         :      0.11s CPU      0.12s WALL (       6 calls)
     matcalc      :      0.00s CPU      0.00s WALL (     100 calls)
     aceupdate    :      0.00s CPU      0.00s WALL (       6 calls)
     vexxace      :      0.00s CPU      0.01s WALL (      83 calls)
     aceinit      :      0.11s CPU      0.12s WALL (       6 calls)

     EXX+US  routines
     becxx        :      0.00s CPU      0.00s WALL (       6 calls)
     addusxx      :      0.02s CPU      0.02s WALL (     120 calls)
     newdxx       :      0.02s CPU      0.02s WALL (     120 calls)
     qvan_init    :      0.01s CPU      0.01s WALL (       6 calls)
     nlxx_pot     :      0.00s CPU      0.00s WALL (      30 calls)

     EXX+PAW routines
     PAW_newdxx   :      0.01s CPU      0.01s WALL (     120 calls)

     PAW routines
     PAW_pot      :      1.71s CPU      1.75s WALL (      38 calls)
     PAW_symme    :      0.00s CPU      0.00s WALL (      74 calls)
 
     PWSCF        :      5.62s CPU     10.11s WALL

 
   This run was terminated on:  12: 0:13  14Jan2021            

=------------------------------------------------------------------------------=
   JOB DONE.
=------------------------------------------------------------------------------=
