
     Program PWSCF v.6.4.1 starts on 14Jan2021 at 12: 0:45 

     This program is part of the open-source Quantum ESPRESSO suite
     for quantum simulation of materials; please cite
         "P. Giannozzi et al., J. Phys.:Condens. Matter 21 395502 (2009);
         "P. Giannozzi et al., J. Phys.:Condens. Matter 29 465901 (2017);
          URL http://www.quantum-espresso.org", 
     in publications or presentations arising from this work. More details at
     http://www.quantum-espresso.org/quote

     Parallel version (MPI), running on    16 processors

     MPI processes distributed on     1 nodes
     R & G space division:  proc/nbgrp/npool/nimage =      16
     Waiting for input...
     Reading input from standard input
Warning: card &IONS ignored
Warning: card     ION_DYNAMICS="BFGS" ignored
Warning: card / ignored

     Current dimensions of program PWSCF are:
     Max number of different atomic species (ntypx) = 10
     Max number of k-points (npk) =  40000
     Max angular momentum in pseudopotentials (lmaxx) =  3

     IMPORTANT: XC functional enforced from input :
     Exchange-correlation      = HSE ( 1  4 12  4 0 0)
     EXX-fraction              =        0.25
     Using LIBXC version       =    4   3   4
     Any further DFT definition will be discarded
     Please, verify this is what you really want

               file N.pbe-n-kjpaw_psl.1.0.0.UPF: wavefunction(s)  2S renormalized

     gamma-point specific algorithms are used
     Message from routine setup :
     BEWARE: nonlinear core correction is not consistent with hybrid XC

     Subspace diagonalization in iterative solution of the eigenvalue problem:
     one sub-group per band group will be used
     scalapack distributed-memory algorithm (size of sub-group:  2*  2 procs)

     EXX: grid of k+q points same as grid of k-points
 
     Parallelization info
     --------------------
     sticks:   dense  smooth     PW     G-vecs:    dense   smooth      PW
     Min          20      20      4                 2396     2396     276
     Max          26      26      6                 2444     2444     338
     Sum         337     337     85                38829    38829    4973
 


     bravais-lattice index     =            4
     lattice parameter (alat)  =       4.9038  a.u.
     unit-cell volume          =     815.9126 (a.u.)^3
     number of atoms/cell      =            2
     number of atomic types    =            2
     number of electrons       =         8.00
     number of Kohn-Sham states=            5
     kinetic-energy cutoff     =      50.0000  Ry
     charge density cutoff     =     200.0000  Ry
     cutoff for Fock operator  =     200.0000  Ry
     convergence threshold     =      1.0E-08
     mixing beta               =       0.3100
     number of iterations used =            8  plain     mixing
     Exchange-correlation      = HSE ( 1  4 12  4 0 0)
     EXX-fraction              =        0.25
     Using LIBXC version       =    4   3   4

     celldm(1)=   4.903839  celldm(2)=   0.000000  celldm(3)=   7.989220
     celldm(4)=   0.000000  celldm(5)=   0.000000  celldm(6)=   0.000000

     crystal axes: (cart. coord. in units of alat)
               a(1) = (   1.000000   0.000000   0.000000 )  
               a(2) = (  -0.500000   0.866025   0.000000 )  
               a(3) = (   0.000000   0.000000   7.989220 )  

     reciprocal axes: (cart. coord. in units 2 pi/alat)
               b(1) = (  1.000000  0.577350  0.000000 )  
               b(2) = (  0.000000  1.154701  0.000000 )  
               b(3) = (  0.000000  0.000000  0.125169 )  


     PseudoPot. # 1 for B  read from file:
     ./pseudo/B.pbe-n-kjpaw_psl.1.0.0.UPF
     MD5 check sum: 8c825a5969375aca5c2c6ad5945b3059
     Pseudo is Projector augmented-wave + core cor, Zval =  3.0
     Generated using "atomic" code by A. Dal Corso v.6.3
     Shape of augmentation charge: PSQ
     Using radial grid of 1059 points,  4 beta functions with: 
                l(1) =   0
                l(2) =   0
                l(3) =   1
                l(4) =   1
     Q(r) pseudized with 0 coefficients 


     PseudoPot. # 2 for N  read from file:
     ./pseudo/N.pbe-n-kjpaw_psl.1.0.0.UPF
     MD5 check sum: 14c48229446f9f2d411169a3abcbc3fa
     Pseudo is Projector augmented-wave + core cor, Zval =  5.0
     Generated using "atomic" code by A. Dal Corso v.6.3
     Shape of augmentation charge: PSQ
     Using radial grid of 1085 points,  4 beta functions with: 
                l(1) =   0
                l(2) =   0
                l(3) =   1
                l(4) =   1
     Q(r) pseudized with 0 coefficients 


     atomic species   valence    mass     pseudopotential
        B              3.00    10.00000     B ( 1.00)
        N              5.00    14.00000     N ( 1.00)

     12 Sym. Ops. (no inversion) found


                                    s                        frac. trans.

      isym =  1     identity                                     

 cryst.   s( 1) = (     1          0          0      )
                  (     0          1          0      )
                  (     0          0          1      )

 cart.    s( 1) = (  1.0000000  0.0000000  0.0000000 )
                  (  0.0000000  1.0000000  0.0000000 )
                  (  0.0000000  0.0000000  1.0000000 )


      isym =  2     180 deg rotation - cart. axis [0,1,0]        

 cryst.   s( 2) = (    -1          0          0      )
                  (     1          1          0      )
                  (     0          0         -1      )

 cart.    s( 2) = ( -1.0000000  0.0000000  0.0000000 )
                  (  0.0000000  1.0000000  0.0000000 )
                  (  0.0000000  0.0000000 -1.0000000 )


      isym =  3     120 deg rotation - cryst. axis [0,0,1]       

 cryst.   s( 3) = (     0          1          0      )
                  (    -1         -1          0      )
                  (     0          0          1      )

 cart.    s( 3) = ( -0.5000000 -0.8660254  0.0000000 )
                  (  0.8660254 -0.5000000  0.0000000 )
                  (  0.0000000  0.0000000  1.0000000 )


      isym =  4     120 deg rotation - cryst. axis [0,0,-1]      

 cryst.   s( 4) = (    -1         -1          0      )
                  (     1          0          0      )
                  (     0          0          1      )

 cart.    s( 4) = ( -0.5000000  0.8660254  0.0000000 )
                  ( -0.8660254 -0.5000000  0.0000000 )
                  (  0.0000000  0.0000000  1.0000000 )


      isym =  5     180 deg rotation - cryst. axis [1,-1,0]      

 cryst.   s( 5) = (     0         -1          0      )
                  (    -1          0          0      )
                  (     0          0         -1      )

 cart.    s( 5) = (  0.5000000 -0.8660254  0.0000000 )
                  ( -0.8660254 -0.5000000  0.0000000 )
                  (  0.0000000  0.0000000 -1.0000000 )


      isym =  6     180 deg rotation - cryst. axis [2,1,0]       

 cryst.   s( 6) = (     1          1          0      )
                  (     0         -1          0      )
                  (     0          0         -1      )

 cart.    s( 6) = (  0.5000000  0.8660254  0.0000000 )
                  (  0.8660254 -0.5000000  0.0000000 )
                  (  0.0000000  0.0000000 -1.0000000 )


      isym =  7     inv. 180 deg rotation - cart. axis [0,0,1]   

 cryst.   s( 7) = (     1          0          0      )
                  (     0          1          0      )
                  (     0          0         -1      )

 cart.    s( 7) = (  1.0000000  0.0000000  0.0000000 )
                  (  0.0000000  1.0000000  0.0000000 )
                  (  0.0000000  0.0000000 -1.0000000 )


      isym =  8     inv. 180 deg rotation - cart. axis [1,0,0]   

 cryst.   s( 8) = (    -1          0          0      )
                  (     1          1          0      )
                  (     0          0          1      )

 cart.    s( 8) = ( -1.0000000  0.0000000  0.0000000 )
                  (  0.0000000  1.0000000  0.0000000 )
                  (  0.0000000  0.0000000  1.0000000 )


      isym =  9     inv.  60 deg rotation - cryst. axis [0,0,1]  

 cryst.   s( 9) = (    -1         -1          0      )
                  (     1          0          0      )
                  (     0          0         -1      )

 cart.    s( 9) = ( -0.5000000  0.8660254  0.0000000 )
                  ( -0.8660254 -0.5000000  0.0000000 )
                  (  0.0000000  0.0000000 -1.0000000 )


      isym = 10     inv.  60 deg rotation - cryst. axis [0,0,-1] 

 cryst.   s(10) = (     0          1          0      )
                  (    -1         -1          0      )
                  (     0          0         -1      )

 cart.    s(10) = ( -0.5000000 -0.8660254  0.0000000 )
                  (  0.8660254 -0.5000000  0.0000000 )
                  (  0.0000000  0.0000000 -1.0000000 )


      isym = 11     inv. 180 deg rotation - cryst. axis [0,1,0]  

 cryst.   s(11) = (     1          1          0      )
                  (     0         -1          0      )
                  (     0          0          1      )

 cart.    s(11) = (  0.5000000  0.8660254  0.0000000 )
                  (  0.8660254 -0.5000000  0.0000000 )
                  (  0.0000000  0.0000000  1.0000000 )


      isym = 12     inv. 180 deg rotation - cryst. axis [1,1,0]  

 cryst.   s(12) = (     0         -1          0      )
                  (    -1          0          0      )
                  (     0          0          1      )

 cart.    s(12) = (  0.5000000 -0.8660254  0.0000000 )
                  ( -0.8660254 -0.5000000  0.0000000 )
                  (  0.0000000  0.0000000  1.0000000 )


     point group D_3h (-62m)
     there are  6 classes
     the character table:

       E     2C3   3C2   s_h   2S3   3s_v 
A'_1   1.00  1.00  1.00  1.00  1.00  1.00
A'_2   1.00  1.00 -1.00  1.00  1.00 -1.00
E'     2.00 -1.00  0.00  2.00 -1.00  0.00
A''1   1.00  1.00  1.00 -1.00 -1.00 -1.00
A''2   1.00  1.00 -1.00 -1.00 -1.00  1.00
E''    2.00 -1.00  0.00 -2.00  1.00  0.00

     the symmetry operations in each class and the name of the first element:

     E        1
          identity                                               
     2C3      3    4
          120 deg rotation - cryst. axis [0,0,1]                 
     3C2      2    6    5
          180 deg rotation - cart. axis [0,1,0]                  
     s_h      7
          inv. 180 deg rotation - cart. axis [0,0,1]             
     2S3      9   10
          inv.  60 deg rotation - cryst. axis [0,0,1]            
     3s_v     8   11   12
          inv. 180 deg rotation - cart. axis [1,0,0]             

   Cartesian axes

     site n.     atom                  positions (alat units)
         1           B   tau(   1) = (   0.5000000   0.2886751   0.0000000  )
         2           N   tau(   2) = (  -0.0000000   0.5773503   0.0000000  )

   Crystallographic axes

     site n.     atom                  positions (cryst. coord.)
         1           B   tau(   1) = (  0.6666667  0.3333333  0.0000000  )
         2           N   tau(   2) = (  0.3333333  0.6666667  0.0000000  )

     number of k points=     1  gaussian smearing, width (Ry)=  0.0100
                       cart. coord. in units 2pi/alat
        k(    1) = (   0.0000000   0.0000000   0.0000000), wk =   2.0000000

                       cryst. coord.
        k(    1) = (   0.0000000   0.0000000   0.0000000), wk =   2.0000000

     Dense  grid:    19415 G-vectors     FFT dimensions: (  24,  24, 180)

     Dynamical RAM for                 wfc:       0.01 MB

     Dynamical RAM for     wfc (w. buffer):       0.01 MB

     Dynamical RAM for                 EXX:       2.72 MB

     Dynamical RAM for           str. fact:       0.04 MB

     Dynamical RAM for           local pot:       0.00 MB

     Dynamical RAM for          nlocal pot:       0.04 MB

     Dynamical RAM for                qrad:       0.51 MB

     Dynamical RAM for          rho,v,vnew:       0.21 MB

     Dynamical RAM for               rhoin:       0.07 MB

     Dynamical RAM for            rho*nmix:       0.30 MB

     Dynamical RAM for           G-vectors:       0.08 MB

     Dynamical RAM for          h,s,v(r/c):       0.00 MB

     Dynamical RAM for          <psi|beta>:       0.00 MB

     Dynamical RAM for                 psi:       0.05 MB

     Dynamical RAM for                hpsi:       0.05 MB

     Dynamical RAM for                spsi:       0.05 MB

     Dynamical RAM for      wfcinit/wfcrot:       0.04 MB

     Dynamical RAM for           addusdens:       0.82 MB

     Dynamical RAM for          addusforce:       0.89 MB

     Dynamical RAM for         addusstress:       0.93 MB

     Estimated static dynamical RAM per process >       4.30 MB

     Estimated max dynamical RAM per process >       5.23 MB

     Estimated total dynamical RAM >      83.72 MB

     Check: negative core charge=   -0.000010

     Initial potential from superposition of free atoms

     starting charge    7.99971, renormalised to    8.00000

     negative rho (up, down):  6.562E-04 0.000E+00
     Starting wfcs are    8 randomized atomic wfcs

     total cpu time spent up to now is        3.7 secs

     Self-consistent Calculation

     iteration #  1     ecut=    50.00 Ry     beta= 0.31
     Davidson diagonalization with overlap
     ethr =  1.00E-02,  avg # of iterations =  4.0

     negative rho (up, down):  9.643E-04 0.000E+00

     total cpu time spent up to now is        3.9 secs

     total energy              =     -39.37285211 Ry
     Harris-Foulkes estimate   =     -39.58725423 Ry
     estimated scf accuracy    <       0.56890530 Ry

     iteration #  2     ecut=    50.00 Ry     beta= 0.31
     Davidson diagonalization with overlap
     ethr =  7.11E-03,  avg # of iterations =  2.0

     negative rho (up, down):  1.278E-03 0.000E+00

     total cpu time spent up to now is        4.1 secs

     total energy              =     -39.42105340 Ry
     Harris-Foulkes estimate   =     -39.43783530 Ry
     estimated scf accuracy    <       0.07712163 Ry

     iteration #  3     ecut=    50.00 Ry     beta= 0.31
     Davidson diagonalization with overlap
     ethr =  9.64E-04,  avg # of iterations =  3.0

     negative rho (up, down):  1.550E-03 0.000E+00

     total cpu time spent up to now is        4.2 secs

     total energy              =     -39.42423314 Ry
     Harris-Foulkes estimate   =     -39.43277043 Ry
     estimated scf accuracy    <       0.03141150 Ry

     iteration #  4     ecut=    50.00 Ry     beta= 0.31
     Davidson diagonalization with overlap
     ethr =  3.93E-04,  avg # of iterations =  2.0

     negative rho (up, down):  1.791E-03 0.000E+00

     total cpu time spent up to now is        4.3 secs

     total energy              =     -39.42747717 Ry
     Harris-Foulkes estimate   =     -39.42716640 Ry
     estimated scf accuracy    <       0.00407146 Ry

     iteration #  5     ecut=    50.00 Ry     beta= 0.31
     Davidson diagonalization with overlap
     ethr =  5.09E-05,  avg # of iterations =  3.0

     negative rho (up, down):  1.786E-03 0.000E+00

     total cpu time spent up to now is        4.5 secs

     total energy              =     -39.42779265 Ry
     Harris-Foulkes estimate   =     -39.42811202 Ry
     estimated scf accuracy    <       0.00157397 Ry

     iteration #  6     ecut=    50.00 Ry     beta= 0.31
     Davidson diagonalization with overlap
     ethr =  1.97E-05,  avg # of iterations =  1.0

     negative rho (up, down):  1.794E-03 0.000E+00

     total cpu time spent up to now is        4.6 secs

     total energy              =     -39.42726614 Ry
     Harris-Foulkes estimate   =     -39.42781383 Ry
     estimated scf accuracy    <       0.00103709 Ry

     iteration #  7     ecut=    50.00 Ry     beta= 0.31
     Davidson diagonalization with overlap
     ethr =  1.30E-05,  avg # of iterations =  2.0

     negative rho (up, down):  1.792E-03 0.000E+00

     total cpu time spent up to now is        4.7 secs

     total energy              =     -39.42747452 Ry
     Harris-Foulkes estimate   =     -39.42751650 Ry
     estimated scf accuracy    <       0.00014743 Ry

     iteration #  8     ecut=    50.00 Ry     beta= 0.31
     Davidson diagonalization with overlap
     ethr =  1.84E-06,  avg # of iterations =  3.0

     negative rho (up, down):  1.793E-03 0.000E+00

     total cpu time spent up to now is        4.8 secs

     total energy              =     -39.42745529 Ry
     Harris-Foulkes estimate   =     -39.42748166 Ry
     estimated scf accuracy    <       0.00005727 Ry

     iteration #  9     ecut=    50.00 Ry     beta= 0.31
     Davidson diagonalization with overlap
     ethr =  7.16E-07,  avg # of iterations =  2.0

     negative rho (up, down):  1.794E-03 0.000E+00

     total cpu time spent up to now is        4.9 secs

     total energy              =     -39.42747303 Ry
     Harris-Foulkes estimate   =     -39.42747265 Ry
     estimated scf accuracy    <       0.00000431 Ry

     iteration # 10     ecut=    50.00 Ry     beta= 0.31
     Davidson diagonalization with overlap
     ethr =  5.38E-08,  avg # of iterations =  1.0

     negative rho (up, down):  1.795E-03 0.000E+00

     total cpu time spent up to now is        5.0 secs

     total energy              =     -39.42747337 Ry
     Harris-Foulkes estimate   =     -39.42747328 Ry
     estimated scf accuracy    <       0.00000470 Ry

     iteration # 11     ecut=    50.00 Ry     beta= 0.31
     Davidson diagonalization with overlap
     ethr =  5.38E-08,  avg # of iterations =  1.0

     negative rho (up, down):  1.795E-03 0.000E+00

     total cpu time spent up to now is        5.2 secs

     total energy              =     -39.42747234 Ry
     Harris-Foulkes estimate   =     -39.42747348 Ry
     estimated scf accuracy    <       0.00000542 Ry

     iteration # 12     ecut=    50.00 Ry     beta= 0.31
     Davidson diagonalization with overlap
     ethr =  5.38E-08,  avg # of iterations =  1.0

     negative rho (up, down):  1.796E-03 0.000E+00

     total cpu time spent up to now is        5.3 secs

     total energy              =     -39.42747143 Ry
     Harris-Foulkes estimate   =     -39.42747240 Ry
     estimated scf accuracy    <       0.00000301 Ry

     iteration # 13     ecut=    50.00 Ry     beta= 0.31
     Davidson diagonalization with overlap
     ethr =  3.77E-08,  avg # of iterations =  2.0

     negative rho (up, down):  1.796E-03 0.000E+00

     total cpu time spent up to now is        5.4 secs

     total energy              =     -39.42747169 Ry
     Harris-Foulkes estimate   =     -39.42747175 Ry
     estimated scf accuracy    <       0.00000025 Ry

     iteration # 14     ecut=    50.00 Ry     beta= 0.31
     Davidson diagonalization with overlap
     ethr =  3.07E-09,  avg # of iterations =  1.0

     negative rho (up, down):  1.796E-03 0.000E+00

     total cpu time spent up to now is        5.5 secs

     total energy              =     -39.42747166 Ry
     Harris-Foulkes estimate   =     -39.42747170 Ry
     estimated scf accuracy    <       0.00000008 Ry

     iteration # 15     ecut=    50.00 Ry     beta= 0.31
     Davidson diagonalization with overlap
     ethr =  1.05E-09,  avg # of iterations =  2.0

     negative rho (up, down):  1.796E-03 0.000E+00

     total cpu time spent up to now is        5.6 secs

     End of self-consistent calculation

          k = 0.0000 0.0000 0.0000 (  2487 PWs)   bands (ev):

   -21.4979  -9.4426  -5.6877  -5.6877   0.1452

     occupation numbers 
     1.0000   1.0000   1.0000   1.0000   0.0000

     the Fermi energy is    -2.3561 ev

!    total energy              =     -39.42747168 Ry
     Harris-Foulkes estimate   =     -39.42747169 Ry
     estimated scf accuracy    <          2.9E-09 Ry

     convergence has been achieved in  15 iterations

     Using ACE for calculation of exact exchange

     EXX grid:    19415 G-vectors     FFT dimensions: (  24,  24, 180)

     negative rho (up, down):  1.796E-03 0.000E+00

     EXX: now go back to refine exchange calculation

     total cpu time spent up to now is        6.6 secs

     Self-consistent Calculation

     iteration #  1     ecut=    50.00 Ry     beta= 0.31
     Davidson diagonalization with overlap
     ethr =  1.05E-09,  avg # of iterations =  8.0

     negative rho (up, down):  1.830E-03 0.000E+00

     total cpu time spent up to now is        6.7 secs

     total energy              =     -36.13763774 Ry
     Harris-Foulkes estimate   =     -36.13795656 Ry
     estimated scf accuracy    <       0.00081241 Ry

     iteration #  2     ecut=    50.00 Ry     beta= 0.31
     Davidson diagonalization with overlap
     ethr =  1.02E-05,  avg # of iterations =  4.0

     negative rho (up, down):  1.841E-03 0.000E+00

     total cpu time spent up to now is        6.8 secs

     total energy              =     -35.96639592 Ry
     Harris-Foulkes estimate   =     -35.96678716 Ry
     estimated scf accuracy    <       0.00287553 Ry

     iteration #  3     ecut=    50.00 Ry     beta= 0.31
     Davidson diagonalization with overlap
     ethr =  1.02E-05,  avg # of iterations =  1.0

     negative rho (up, down):  1.928E-03 0.000E+00

     total cpu time spent up to now is        6.9 secs

     total energy              =     -35.96509081 Ry
     Harris-Foulkes estimate   =     -35.96641391 Ry
     estimated scf accuracy    <       0.00197653 Ry

     iteration #  4     ecut=    50.00 Ry     beta= 0.31
     Davidson diagonalization with overlap
     ethr =  1.02E-05,  avg # of iterations =  3.0

     negative rho (up, down):  1.988E-03 0.000E+00

     total cpu time spent up to now is        7.1 secs

     total energy              =     -35.96578835 Ry
     Harris-Foulkes estimate   =     -35.96569606 Ry
     estimated scf accuracy    <       0.00026344 Ry

     iteration #  5     ecut=    50.00 Ry     beta= 0.31
     Davidson diagonalization with overlap
     ethr =  3.29E-06,  avg # of iterations =  2.0

     negative rho (up, down):  1.963E-03 0.000E+00

     total cpu time spent up to now is        7.2 secs

     total energy              =     -35.96547804 Ry
     Harris-Foulkes estimate   =     -35.96581631 Ry
     estimated scf accuracy    <       0.00056101 Ry

     iteration #  6     ecut=    50.00 Ry     beta= 0.31
     Davidson diagonalization with overlap
     ethr =  3.29E-06,  avg # of iterations =  2.0

     negative rho (up, down):  1.966E-03 0.000E+00

     total cpu time spent up to now is        7.3 secs

     total energy              =     -35.96559898 Ry
     Harris-Foulkes estimate   =     -35.96559969 Ry
     estimated scf accuracy    <       0.00000207 Ry

     iteration #  7     ecut=    50.00 Ry     beta= 0.31
     Davidson diagonalization with overlap
     ethr =  2.59E-08,  avg # of iterations =  2.0

     negative rho (up, down):  1.966E-03 0.000E+00

     total cpu time spent up to now is        7.5 secs

     total energy              =     -35.96559992 Ry
     Harris-Foulkes estimate   =     -35.96560016 Ry
     estimated scf accuracy    <       0.00000092 Ry

     iteration #  8     ecut=    50.00 Ry     beta= 0.31
     Davidson diagonalization with overlap
     ethr =  1.15E-08,  avg # of iterations =  1.0

     negative rho (up, down):  1.966E-03 0.000E+00

     total cpu time spent up to now is        7.6 secs

     total energy              =     -35.96559966 Ry
     Harris-Foulkes estimate   =     -35.96559993 Ry
     estimated scf accuracy    <       0.00000051 Ry

     iteration #  9     ecut=    50.00 Ry     beta= 0.31
     Davidson diagonalization with overlap
     ethr =  6.37E-09,  avg # of iterations =  2.0

     negative rho (up, down):  1.966E-03 0.000E+00

     total cpu time spent up to now is        7.7 secs

     End of self-consistent calculation

          k = 0.0000 0.0000 0.0000 (  2487 PWs)   bands (ev):

   -23.5565 -10.5778  -7.3959  -7.3959   0.3522

     occupation numbers 
     1.0000   1.0000   1.0000   1.0000   0.0000

     the Fermi energy is    -5.4889 ev

!    total energy              =     -35.96559974 Ry
     Harris-Foulkes estimate   =     -35.96559974 Ry
     estimated scf accuracy    <          6.5E-09 Ry

     convergence has been achieved in   9 iterations

     Using ACE for calculation of exact exchange

     total energy              =     -35.96590499 Ry
     Harris-Foulkes estimate   =     -35.96590499 Ry
     est. exchange err (dexx)  =       0.00030525 Ry
     - averaged Fock potential =       2.91908289 Ry
     + Fock energy (ACE)       =      -1.45899276 Ry

     EXX: now go back to refine exchange calculation

     total cpu time spent up to now is        7.8 secs

     Self-consistent Calculation

     iteration #  1     ecut=    50.00 Ry     beta= 0.31
     Davidson diagonalization with overlap
     ethr =  6.37E-09,  avg # of iterations =  4.0

     negative rho (up, down):  1.966E-03 0.000E+00

     total cpu time spent up to now is        8.0 secs

     total energy              =     -35.96593339 Ry
     Harris-Foulkes estimate   =     -35.96593771 Ry
     estimated scf accuracy    <       0.00001178 Ry

     iteration #  2     ecut=    50.00 Ry     beta= 0.31
     Davidson diagonalization with overlap
     ethr =  1.47E-07,  avg # of iterations =  1.0

     negative rho (up, down):  1.966E-03 0.000E+00

     total cpu time spent up to now is        8.2 secs

     total energy              =     -35.96593170 Ry
     Harris-Foulkes estimate   =     -35.96593380 Ry
     estimated scf accuracy    <       0.00000365 Ry

     iteration #  3     ecut=    50.00 Ry     beta= 0.31
     Davidson diagonalization with overlap
     ethr =  4.56E-08,  avg # of iterations =  2.0

     negative rho (up, down):  1.966E-03 0.000E+00

     total cpu time spent up to now is        8.3 secs

     total energy              =     -35.96593199 Ry
     Harris-Foulkes estimate   =     -35.96593212 Ry
     estimated scf accuracy    <       0.00000022 Ry

     iteration #  4     ecut=    50.00 Ry     beta= 0.31
     Davidson diagonalization with overlap
     ethr =  2.77E-09,  avg # of iterations =  2.0

     negative rho (up, down):  1.966E-03 0.000E+00

     total cpu time spent up to now is        8.4 secs

     total energy              =     -35.96593205 Ry
     Harris-Foulkes estimate   =     -35.96593207 Ry
     estimated scf accuracy    <       0.00000008 Ry

     iteration #  5     ecut=    50.00 Ry     beta= 0.31
     Davidson diagonalization with overlap
     ethr =  9.64E-10,  avg # of iterations =  1.0

     negative rho (up, down):  1.966E-03 0.000E+00

     total cpu time spent up to now is        8.6 secs

     total energy              =     -35.96593203 Ry
     Harris-Foulkes estimate   =     -35.96593205 Ry
     estimated scf accuracy    <       0.00000003 Ry

     iteration #  6     ecut=    50.00 Ry     beta= 0.31
     Davidson diagonalization with overlap
     ethr =  3.51E-10,  avg # of iterations =  2.0

     negative rho (up, down):  1.966E-03 0.000E+00

     total cpu time spent up to now is        8.7 secs

     End of self-consistent calculation

          k = 0.0000 0.0000 0.0000 (  2487 PWs)   bands (ev):

   -23.5771 -10.5959  -7.4185  -7.4185   0.3550

     occupation numbers 
     1.0000   1.0000   1.0000   1.0000   0.0000

     the Fermi energy is    -5.4920 ev

!    total energy              =     -35.96593204 Ry
     Harris-Foulkes estimate   =     -35.96593205 Ry
     estimated scf accuracy    <          4.0E-09 Ry

     convergence has been achieved in   6 iterations

     Using ACE for calculation of exact exchange

     total energy              =     -35.96593554 Ry
     Harris-Foulkes estimate   =     -35.96593554 Ry
     est. exchange err (dexx)  =       0.00000349 Ry
     - averaged Fock potential =       2.91782197 Ry
     + Fock energy (ACE)       =      -1.45883271 Ry

     EXX: now go back to refine exchange calculation

     total cpu time spent up to now is        9.0 secs

     Self-consistent Calculation

     iteration #  1     ecut=    50.00 Ry     beta= 0.31
     Davidson diagonalization with overlap
     ethr =  3.51E-10,  avg # of iterations =  4.0

     negative rho (up, down):  1.966E-03 0.000E+00

     total cpu time spent up to now is        9.1 secs

     total energy              =     -35.96593620 Ry
     Harris-Foulkes estimate   =     -35.96593626 Ry
     estimated scf accuracy    <       0.00000021 Ry

     iteration #  2     ecut=    50.00 Ry     beta= 0.31
     Davidson diagonalization with overlap
     ethr =  2.61E-09,  avg # of iterations =  1.0

     negative rho (up, down):  1.966E-03 0.000E+00

     total cpu time spent up to now is        9.2 secs

     total energy              =     -35.96593617 Ry
     Harris-Foulkes estimate   =     -35.96593620 Ry
     estimated scf accuracy    <       0.00000008 Ry

     iteration #  3     ecut=    50.00 Ry     beta= 0.31
     Davidson diagonalization with overlap
     ethr =  9.43E-10,  avg # of iterations =  2.0

     negative rho (up, down):  1.966E-03 0.000E+00

     total cpu time spent up to now is        9.3 secs

     End of self-consistent calculation

          k = 0.0000 0.0000 0.0000 (  2487 PWs)   bands (ev):

   -23.5795 -10.5974  -7.4212  -7.4212   0.3545

     occupation numbers 
     1.0000   1.0000   1.0000   1.0000   0.0000

     the Fermi energy is    -5.4929 ev

!    total energy              =     -35.96593618 Ry
     Harris-Foulkes estimate   =     -35.96593618 Ry
     estimated scf accuracy    <          3.2E-09 Ry

     convergence has been achieved in   3 iterations

     Using ACE for calculation of exact exchange

     total energy              =     -35.96593632 Ry
     Harris-Foulkes estimate   =     -35.96593632 Ry
     est. exchange err (dexx)  =       0.00000014 Ry
     - averaged Fock potential =       2.91764724 Ry
     + Fock energy (ACE)       =      -1.45881467 Ry

     EXX: now go back to refine exchange calculation

     total cpu time spent up to now is        9.5 secs

     Self-consistent Calculation

     iteration #  1     ecut=    50.00 Ry     beta= 0.31
     Davidson diagonalization with overlap
     ethr =  9.43E-10,  avg # of iterations =  2.0

     negative rho (up, down):  1.966E-03 0.000E+00

     total cpu time spent up to now is        9.6 secs

     total energy              =     -35.96593635 Ry
     Harris-Foulkes estimate   =     -35.96593636 Ry
     estimated scf accuracy    <       0.00000002 Ry

     iteration #  2     ecut=    50.00 Ry     beta= 0.31
     Davidson diagonalization with overlap
     ethr =  2.96E-10,  avg # of iterations =  1.0

     negative rho (up, down):  1.966E-03 0.000E+00

     total cpu time spent up to now is        9.8 secs

     End of self-consistent calculation

          k = 0.0000 0.0000 0.0000 (  2487 PWs)   bands (ev):

   -23.5794 -10.5972  -7.4213  -7.4213   0.3545

     occupation numbers 
     1.0000   1.0000   1.0000   1.0000   0.0000

     the Fermi energy is    -5.4929 ev

!    total energy              =     -35.96593635 Ry
     Harris-Foulkes estimate   =     -35.96593636 Ry
     estimated scf accuracy    <          5.1E-09 Ry

     convergence has been achieved in   2 iterations

     Using ACE for calculation of exact exchange

     total energy              =     -35.96593636 Ry
     Harris-Foulkes estimate   =     -35.96593637 Ry
     est. exchange err (dexx)  =       0.00000001 Ry
     - averaged Fock potential =       2.91763675 Ry
     + Fock energy (ACE)       =      -1.45882209 Ry

     EXX: now go back to refine exchange calculation

     total cpu time spent up to now is       10.0 secs

     Self-consistent Calculation

     iteration #  1     ecut=    50.00 Ry     beta= 0.31
     Davidson diagonalization with overlap
     ethr =  2.96E-10,  avg # of iterations =  2.0

     Threshold (ethr) on eigenvalues was too large:
     Diagonalizing with lowered threshold

     Davidson diagonalization with overlap
     ethr =  1.35E-11,  avg # of iterations =  1.0

     negative rho (up, down):  1.966E-03 0.000E+00

     total cpu time spent up to now is       10.2 secs

     End of self-consistent calculation

          k = 0.0000 0.0000 0.0000 (  2487 PWs)   bands (ev):

   -23.5797 -10.5974  -7.4215  -7.4215   0.3545

     occupation numbers 
     1.0000   1.0000   1.0000   1.0000   0.0000

     the Fermi energy is    -5.4930 ev

!    total energy              =     -35.96593637 Ry
     Harris-Foulkes estimate   =     -35.96593637 Ry
     estimated scf accuracy    <          9.4E-10 Ry

     convergence has been achieved in   1 iterations

     Using ACE for calculation of exact exchange

!!   total energy              =     -35.96593637 Ry
     Harris-Foulkes estimate   =     -35.96593637 Ry
     est. exchange err (dexx)  =          4.5E-10 Ry
     - averaged Fock potential =       2.91763875 Ry
     + Fock energy (ACE)       =      -1.45881666 Ry

     EXX self-consistency reached

     negative rho (up, down):  1.966E-03 0.000E+00

     Forces acting on atoms (cartesian axes, Ry/au):

     atom    1 type  1   force =     0.00000000    0.00000000    0.00000000
     atom    2 type  2   force =    -0.00000000   -0.00000000    0.00000000
     The non-local contrib.  to forces
     atom    1 type  1   force =     0.00000000    0.00000000    0.00000000
     atom    2 type  2   force =     0.00000000    0.00000000    0.00000000
     The ionic contribution  to forces
     atom    1 type  1   force =    -0.00000144    0.00000083   -0.00000000
     atom    2 type  2   force =     0.00000144   -0.00000083    0.00000000
     The local contribution  to forces
     atom    1 type  1   force =     0.00000146   -0.00000084   -0.00000000
     atom    2 type  2   force =    -0.00000168    0.00000097   -0.00000000
     The core correction contribution to forces
     atom    1 type  1   force =     0.00000002   -0.00000001   -0.00000000
     atom    2 type  2   force =     0.00000001   -0.00000000    0.00000000
     The Hubbard contrib.    to forces
     atom    1 type  1   force =     0.00000000    0.00000000    0.00000000
     atom    2 type  2   force =     0.00000000    0.00000000    0.00000000
     The SCF correction term to forces
     atom    1 type  1   force =     0.00000000   -0.00000000    0.00000000
     atom    2 type  2   force =     0.00000000    0.00000000    0.00000000

     Total force =     0.000000     Total SCF correction =     0.000000


     Computing stress (Cartesian axis) and pressure


     negative rho (up, down):  1.966E-03 0.000E+00
     Message from routine exx_stress:
     USPP stress not tested
          total   stress  (Ry/bohr**3)                   (kbar)     P=   20.06
   0.00002563  -0.00000000   0.00000000          3.77     -0.00      0.00
  -0.00000000   0.00002563   0.00000000         -0.00      3.77      0.00
  -0.00000000   0.00000000   0.00035785         -0.00      0.00     52.64

     kinetic stress (kbar)   2023.67     -0.00      0.00
                                0.00   2023.67      0.00
                                0.00      0.00   1931.25

     local   stress (kbar) -39940.22     -0.00     -0.00
                               -0.00 -39940.22     -0.00
                               -0.00     -0.00  39977.39

     nonloc. stress (kbar)    -29.94     -0.00     -0.00
                               -0.00    -29.94      0.00
                               -0.00      0.00     -6.60

     hartree stress (kbar)  19152.44      0.00      0.00
                                0.00  19152.44     -0.00
                                0.00     -0.00 -18722.31

     exc-cor stress (kbar)   -146.64      0.00      0.00
                                0.00   -146.64     -0.00
                                0.00     -0.00   -153.84

     corecor stress (kbar)   -193.78     -0.00     -0.00
                               -0.00   -193.78     -0.00
                               -0.00     -0.00   -183.98

     ewald   stress (kbar)  19247.59      0.00     -0.00
                                0.00  19247.60      0.00
                               -0.00      0.00 -22731.61

     hubbard stress (kbar)      0.00      0.00      0.00
                                0.00      0.00      0.00
                                0.00      0.00      0.00

     london  stress (kbar)      0.00      0.00      0.00
                                0.00      0.00      0.00
                                0.00      0.00      0.00

     DFT-D3  stress (kbar)      0.00      0.00      0.00
                                0.00      0.00      0.00
                                0.00      0.00      0.00

     XDM     stress (kbar)      0.00      0.00      0.00
                                0.00      0.00      0.00
                                0.00      0.00      0.00

     dft-nl  stress (kbar)      0.00      0.00      0.00
                                0.00      0.00      0.00
                                0.00      0.00      0.00

     TS-vdW  stress (kbar)      0.00      0.00      0.00
                                0.00      0.00      0.00
                                0.00      0.00      0.00


     EXX     stress (kbar)   -109.36     -0.00      0.00
                                0.00   -109.36      0.00
                                0.00      0.00    -57.66



     Writing output data file hBN.save/
 
     init_run     :      0.16s CPU      0.19s WALL (       1 calls)
     electrons    :      3.26s CPU      5.67s WALL (       6 calls)
     forces       :      0.08s CPU      0.08s WALL (       1 calls)
     stress       :      0.17s CPU      0.18s WALL (       1 calls)

     Called by init_run:
     wfcinit      :      0.00s CPU      0.02s WALL (       1 calls)
     wfcinit:atom :      0.00s CPU      0.00s WALL (       1 calls)
     wfcinit:wfcr :      0.00s CPU      0.01s WALL (       1 calls)
     potinit      :      0.09s CPU      0.10s WALL (       1 calls)
     hinit0       :      0.06s CPU      0.07s WALL (       1 calls)

     Called by electrons:
     c_bands      :      0.28s CPU      0.95s WALL (      37 calls)
     sum_band     :      0.11s CPU      0.11s WALL (      37 calls)
     v_of_rho     :      1.22s CPU      1.24s WALL (      38 calls)
     v_h          :      0.01s CPU      0.02s WALL (      38 calls)
     v_xc         :      1.27s CPU      1.29s WALL (      40 calls)
     newd         :      0.06s CPU      0.07s WALL (      37 calls)
     PAW_pot      :      1.70s CPU      1.74s WALL (      38 calls)
     mix_rho      :      0.03s CPU      0.03s WALL (      37 calls)

     Called by c_bands:
     init_us_2    :      0.01s CPU      0.01s WALL (     111 calls)
     regterg      :      0.26s CPU      0.27s WALL (      37 calls)

     Called by sum_band:
     sum_band:bec :      0.00s CPU      0.00s WALL (      37 calls)
     addusdens    :      0.05s CPU      0.06s WALL (      37 calls)

     Called by *egterg:
     h_psi        :      0.12s CPU      0.13s WALL (     118 calls)
     s_psi        :      0.00s CPU      0.00s WALL (     118 calls)
     g_psi        :      0.00s CPU      0.00s WALL (      80 calls)
     rdiaghg      :      0.11s CPU      0.12s WALL (     111 calls)
     regterg:over :      0.02s CPU      0.02s WALL (      80 calls)
     regterg:upda :      0.00s CPU      0.00s WALL (      80 calls)
     regterg:last :      0.00s CPU      0.00s WALL (      42 calls)
     rdiaghg:chol :      0.01s CPU      0.01s WALL (     111 calls)
     rdiaghg:inve :      0.00s CPU      0.00s WALL (     111 calls)
     rdiaghg:para :      0.01s CPU      0.01s WALL (     222 calls)

     Called by h_psi:
     h_psi:pot    :      0.12s CPU      0.12s WALL (     118 calls)
     h_psi:calbec :      0.00s CPU      0.01s WALL (     118 calls)
     vloc_psi     :      0.11s CPU      0.11s WALL (     118 calls)
     add_vuspsi   :      0.00s CPU      0.00s WALL (     118 calls)

     General routines
     calbec       :      0.01s CPU      0.01s WALL (     266 calls)
     fft          :      0.22s CPU      0.22s WALL (     355 calls)
     ffts         :      0.01s CPU      0.01s WALL (      37 calls)
     fftw         :      0.12s CPU      0.13s WALL (     717 calls)
     fftc         :      0.04s CPU      0.04s WALL (     130 calls)
     fftcw        :      0.01s CPU      0.01s WALL (      71 calls)
 
     Parallel routines
     fft_scatt_xy :      0.02s CPU      0.02s WALL (    1310 calls)
     fft_scatt_yz :      0.21s CPU      0.22s WALL (    1310 calls)

     EXX routines
     exx_grid     :      0.00s CPU      0.00s WALL (       1 calls)
     exxinit      :      0.62s CPU      0.63s WALL (       6 calls)
     vexx         :      0.11s CPU      0.12s WALL (       6 calls)
     matcalc      :      0.00s CPU      0.00s WALL (     100 calls)
     aceupdate    :      0.00s CPU      0.00s WALL (       6 calls)
     vexxace      :      0.00s CPU      0.01s WALL (      83 calls)
     aceinit      :      0.12s CPU      0.12s WALL (       6 calls)

     EXX+US  routines
     becxx        :      0.00s CPU      0.00s WALL (       6 calls)
     addusxx      :      0.02s CPU      0.02s WALL (     120 calls)
     newdxx       :      0.02s CPU      0.02s WALL (     120 calls)
     qvan_init    :      0.01s CPU      0.01s WALL (       6 calls)
     nlxx_pot     :      0.00s CPU      0.00s WALL (      30 calls)

     EXX+PAW routines
     PAW_newdxx   :      0.01s CPU      0.01s WALL (     120 calls)

     PAW routines
     PAW_pot      :      1.70s CPU      1.74s WALL (      38 calls)
     PAW_symme    :      0.01s CPU      0.01s WALL (      74 calls)
 
     PWSCF        :      7.74s CPU     11.96s WALL

 
   This run was terminated on:  12: 0:57  14Jan2021            

=------------------------------------------------------------------------------=
   JOB DONE.
=------------------------------------------------------------------------------=
