
     Program PWSCF v.6.4.1 starts on 14Jan2021 at 11:59:44 

     This program is part of the open-source Quantum ESPRESSO suite
     for quantum simulation of materials; please cite
         "P. Giannozzi et al., J. Phys.:Condens. Matter 21 395502 (2009);
         "P. Giannozzi et al., J. Phys.:Condens. Matter 29 465901 (2017);
          URL http://www.quantum-espresso.org", 
     in publications or presentations arising from this work. More details at
     http://www.quantum-espresso.org/quote

     Parallel version (MPI), running on    16 processors

     MPI processes distributed on     1 nodes
     R & G space division:  proc/nbgrp/npool/nimage =      16
     Waiting for input...
     Reading input from standard input
Warning: card &IONS ignored
Warning: card     ION_DYNAMICS="BFGS" ignored
Warning: card / ignored

     Current dimensions of program PWSCF are:
     Max number of different atomic species (ntypx) = 10
     Max number of k-points (npk) =  40000
     Max angular momentum in pseudopotentials (lmaxx) =  3

     IMPORTANT: XC functional enforced from input :
     Exchange-correlation      = HSE ( 1  4 12  4 0 0)
     EXX-fraction              =        0.25
     Using LIBXC version       =    4   3   4
     Any further DFT definition will be discarded
     Please, verify this is what you really want

               file N.pbe-n-kjpaw_psl.1.0.0.UPF: wavefunction(s)  2S renormalized

     gamma-point specific algorithms are used
     Message from routine setup :
     BEWARE: nonlinear core correction is not consistent with hybrid XC

     Subspace diagonalization in iterative solution of the eigenvalue problem:
     one sub-group per band group will be used
     scalapack distributed-memory algorithm (size of sub-group:  2*  2 procs)

     EXX: grid of k+q points same as grid of k-points
 
     Parallelization info
     --------------------
     sticks:   dense  smooth     PW     G-vecs:    dense   smooth      PW
     Min          18      18      4                 2302     2302     272
     Max          20      20      6                 2416     2416     330
     Sum         313     313     85                38059    38059    4863
 


     bravais-lattice index     =            4
     lattice parameter (alat)  =       4.8755  a.u.
     unit-cell volume          =     801.8454 (a.u.)^3
     number of atoms/cell      =            2
     number of atomic types    =            2
     number of electrons       =         8.00
     number of Kohn-Sham states=            5
     kinetic-energy cutoff     =      50.0000  Ry
     charge density cutoff     =     200.0000  Ry
     cutoff for Fock operator  =     200.0000  Ry
     convergence threshold     =      1.0E-08
     mixing beta               =       0.3100
     number of iterations used =            8  plain     mixing
     Exchange-correlation      = HSE ( 1  4 12  4 0 0)
     EXX-fraction              =        0.25
     Using LIBXC version       =    4   3   4

     celldm(1)=   4.875493  celldm(2)=   0.000000  celldm(3)=   7.989220
     celldm(4)=   0.000000  celldm(5)=   0.000000  celldm(6)=   0.000000

     crystal axes: (cart. coord. in units of alat)
               a(1) = (   1.000000   0.000000   0.000000 )  
               a(2) = (  -0.500000   0.866025   0.000000 )  
               a(3) = (   0.000000   0.000000   7.989220 )  

     reciprocal axes: (cart. coord. in units 2 pi/alat)
               b(1) = (  1.000000  0.577350  0.000000 )  
               b(2) = (  0.000000  1.154701  0.000000 )  
               b(3) = (  0.000000  0.000000  0.125169 )  


     PseudoPot. # 1 for B  read from file:
     ./pseudo/B.pbe-n-kjpaw_psl.1.0.0.UPF
     MD5 check sum: 8c825a5969375aca5c2c6ad5945b3059
     Pseudo is Projector augmented-wave + core cor, Zval =  3.0
     Generated using "atomic" code by A. Dal Corso v.6.3
     Shape of augmentation charge: PSQ
     Using radial grid of 1059 points,  4 beta functions with: 
                l(1) =   0
                l(2) =   0
                l(3) =   1
                l(4) =   1
     Q(r) pseudized with 0 coefficients 


     PseudoPot. # 2 for N  read from file:
     ./pseudo/N.pbe-n-kjpaw_psl.1.0.0.UPF
     MD5 check sum: 14c48229446f9f2d411169a3abcbc3fa
     Pseudo is Projector augmented-wave + core cor, Zval =  5.0
     Generated using "atomic" code by A. Dal Corso v.6.3
     Shape of augmentation charge: PSQ
     Using radial grid of 1085 points,  4 beta functions with: 
                l(1) =   0
                l(2) =   0
                l(3) =   1
                l(4) =   1
     Q(r) pseudized with 0 coefficients 


     atomic species   valence    mass     pseudopotential
        B              3.00    10.00000     B ( 1.00)
        N              5.00    14.00000     N ( 1.00)

     12 Sym. Ops. (no inversion) found


                                    s                        frac. trans.

      isym =  1     identity                                     

 cryst.   s( 1) = (     1          0          0      )
                  (     0          1          0      )
                  (     0          0          1      )

 cart.    s( 1) = (  1.0000000  0.0000000  0.0000000 )
                  (  0.0000000  1.0000000  0.0000000 )
                  (  0.0000000  0.0000000  1.0000000 )


      isym =  2     180 deg rotation - cart. axis [0,1,0]        

 cryst.   s( 2) = (    -1          0          0      )
                  (     1          1          0      )
                  (     0          0         -1      )

 cart.    s( 2) = ( -1.0000000  0.0000000  0.0000000 )
                  (  0.0000000  1.0000000  0.0000000 )
                  (  0.0000000  0.0000000 -1.0000000 )


      isym =  3     120 deg rotation - cryst. axis [0,0,1]       

 cryst.   s( 3) = (     0          1          0      )
                  (    -1         -1          0      )
                  (     0          0          1      )

 cart.    s( 3) = ( -0.5000000 -0.8660254  0.0000000 )
                  (  0.8660254 -0.5000000  0.0000000 )
                  (  0.0000000  0.0000000  1.0000000 )


      isym =  4     120 deg rotation - cryst. axis [0,0,-1]      

 cryst.   s( 4) = (    -1         -1          0      )
                  (     1          0          0      )
                  (     0          0          1      )

 cart.    s( 4) = ( -0.5000000  0.8660254  0.0000000 )
                  ( -0.8660254 -0.5000000  0.0000000 )
                  (  0.0000000  0.0000000  1.0000000 )


      isym =  5     180 deg rotation - cryst. axis [1,-1,0]      

 cryst.   s( 5) = (     0         -1          0      )
                  (    -1          0          0      )
                  (     0          0         -1      )

 cart.    s( 5) = (  0.5000000 -0.8660254  0.0000000 )
                  ( -0.8660254 -0.5000000  0.0000000 )
                  (  0.0000000  0.0000000 -1.0000000 )


      isym =  6     180 deg rotation - cryst. axis [2,1,0]       

 cryst.   s( 6) = (     1          1          0      )
                  (     0         -1          0      )
                  (     0          0         -1      )

 cart.    s( 6) = (  0.5000000  0.8660254  0.0000000 )
                  (  0.8660254 -0.5000000  0.0000000 )
                  (  0.0000000  0.0000000 -1.0000000 )


      isym =  7     inv. 180 deg rotation - cart. axis [0,0,1]   

 cryst.   s( 7) = (     1          0          0      )
                  (     0          1          0      )
                  (     0          0         -1      )

 cart.    s( 7) = (  1.0000000  0.0000000  0.0000000 )
                  (  0.0000000  1.0000000  0.0000000 )
                  (  0.0000000  0.0000000 -1.0000000 )


      isym =  8     inv. 180 deg rotation - cart. axis [1,0,0]   

 cryst.   s( 8) = (    -1          0          0      )
                  (     1          1          0      )
                  (     0          0          1      )

 cart.    s( 8) = ( -1.0000000  0.0000000  0.0000000 )
                  (  0.0000000  1.0000000  0.0000000 )
                  (  0.0000000  0.0000000  1.0000000 )


      isym =  9     inv.  60 deg rotation - cryst. axis [0,0,1]  

 cryst.   s( 9) = (    -1         -1          0      )
                  (     1          0          0      )
                  (     0          0         -1      )

 cart.    s( 9) = ( -0.5000000  0.8660254  0.0000000 )
                  ( -0.8660254 -0.5000000  0.0000000 )
                  (  0.0000000  0.0000000 -1.0000000 )


      isym = 10     inv.  60 deg rotation - cryst. axis [0,0,-1] 

 cryst.   s(10) = (     0          1          0      )
                  (    -1         -1          0      )
                  (     0          0         -1      )

 cart.    s(10) = ( -0.5000000 -0.8660254  0.0000000 )
                  (  0.8660254 -0.5000000  0.0000000 )
                  (  0.0000000  0.0000000 -1.0000000 )


      isym = 11     inv. 180 deg rotation - cryst. axis [0,1,0]  

 cryst.   s(11) = (     1          1          0      )
                  (     0         -1          0      )
                  (     0          0          1      )

 cart.    s(11) = (  0.5000000  0.8660254  0.0000000 )
                  (  0.8660254 -0.5000000  0.0000000 )
                  (  0.0000000  0.0000000  1.0000000 )


      isym = 12     inv. 180 deg rotation - cryst. axis [1,1,0]  

 cryst.   s(12) = (     0         -1          0      )
                  (    -1          0          0      )
                  (     0          0          1      )

 cart.    s(12) = (  0.5000000 -0.8660254  0.0000000 )
                  ( -0.8660254 -0.5000000  0.0000000 )
                  (  0.0000000  0.0000000  1.0000000 )


     point group D_3h (-62m)
     there are  6 classes
     the character table:

       E     2C3   3C2   s_h   2S3   3s_v 
A'_1   1.00  1.00  1.00  1.00  1.00  1.00
A'_2   1.00  1.00 -1.00  1.00  1.00 -1.00
E'     2.00 -1.00  0.00  2.00 -1.00  0.00
A''1   1.00  1.00  1.00 -1.00 -1.00 -1.00
A''2   1.00  1.00 -1.00 -1.00 -1.00  1.00
E''    2.00 -1.00  0.00 -2.00  1.00  0.00

     the symmetry operations in each class and the name of the first element:

     E        1
          identity                                               
     2C3      3    4
          120 deg rotation - cryst. axis [0,0,1]                 
     3C2      2    6    5
          180 deg rotation - cart. axis [0,1,0]                  
     s_h      7
          inv. 180 deg rotation - cart. axis [0,0,1]             
     2S3      9   10
          inv.  60 deg rotation - cryst. axis [0,0,1]            
     3s_v     8   11   12
          inv. 180 deg rotation - cart. axis [1,0,0]             

   Cartesian axes

     site n.     atom                  positions (alat units)
         1           B   tau(   1) = (   0.5000000   0.2886751   0.0000000  )
         2           N   tau(   2) = (  -0.0000000   0.5773503   0.0000000  )

   Crystallographic axes

     site n.     atom                  positions (cryst. coord.)
         1           B   tau(   1) = (  0.6666667  0.3333333  0.0000000  )
         2           N   tau(   2) = (  0.3333333  0.6666667  0.0000000  )

     number of k points=     1  gaussian smearing, width (Ry)=  0.0100
                       cart. coord. in units 2pi/alat
        k(    1) = (   0.0000000   0.0000000   0.0000000), wk =   2.0000000

                       cryst. coord.
        k(    1) = (   0.0000000   0.0000000   0.0000000), wk =   2.0000000

     Dense  grid:    19030 G-vectors     FFT dimensions: (  24,  24, 180)

     Dynamical RAM for                 wfc:       0.01 MB

     Dynamical RAM for     wfc (w. buffer):       0.01 MB

     Dynamical RAM for                 EXX:       2.68 MB

     Dynamical RAM for           str. fact:       0.04 MB

     Dynamical RAM for           local pot:       0.00 MB

     Dynamical RAM for          nlocal pot:       0.04 MB

     Dynamical RAM for                qrad:       0.50 MB

     Dynamical RAM for          rho,v,vnew:       0.21 MB

     Dynamical RAM for               rhoin:       0.07 MB

     Dynamical RAM for            rho*nmix:       0.29 MB

     Dynamical RAM for           G-vectors:       0.08 MB

     Dynamical RAM for          h,s,v(r/c):       0.00 MB

     Dynamical RAM for          <psi|beta>:       0.00 MB

     Dynamical RAM for                 psi:       0.05 MB

     Dynamical RAM for                hpsi:       0.05 MB

     Dynamical RAM for                spsi:       0.05 MB

     Dynamical RAM for      wfcinit/wfcrot:       0.04 MB

     Dynamical RAM for           addusdens:       0.80 MB

     Dynamical RAM for          addusforce:       0.87 MB

     Dynamical RAM for         addusstress:       0.91 MB

     Estimated static dynamical RAM per process >       4.24 MB

     Estimated max dynamical RAM per process >       5.15 MB

     Estimated total dynamical RAM >      82.40 MB

     Check: negative core charge=   -0.000009

     Initial potential from superposition of free atoms

     starting charge    7.99971, renormalised to    8.00000

     negative rho (up, down):  6.133E-04 0.000E+00
     Starting wfcs are    8 randomized atomic wfcs

     total cpu time spent up to now is        1.7 secs

     Self-consistent Calculation

     iteration #  1     ecut=    50.00 Ry     beta= 0.31
     Davidson diagonalization with overlap
     ethr =  1.00E-02,  avg # of iterations =  3.0

     negative rho (up, down):  8.946E-04 0.000E+00

     total cpu time spent up to now is        1.9 secs

     total energy              =     -39.37611533 Ry
     Harris-Foulkes estimate   =     -39.59229164 Ry
     estimated scf accuracy    <       0.57418994 Ry

     iteration #  2     ecut=    50.00 Ry     beta= 0.31
     Davidson diagonalization with overlap
     ethr =  7.18E-03,  avg # of iterations =  2.0

     negative rho (up, down):  1.194E-03 0.000E+00

     total cpu time spent up to now is        2.1 secs

     total energy              =     -39.42146444 Ry
     Harris-Foulkes estimate   =     -39.43998087 Ry
     estimated scf accuracy    <       0.08029238 Ry

     iteration #  3     ecut=    50.00 Ry     beta= 0.31
     Davidson diagonalization with overlap
     ethr =  1.00E-03,  avg # of iterations =  3.0

     negative rho (up, down):  1.449E-03 0.000E+00

     total cpu time spent up to now is        2.1 secs

     total energy              =     -39.42463987 Ry
     Harris-Foulkes estimate   =     -39.43332666 Ry
     estimated scf accuracy    <       0.03122862 Ry

     iteration #  4     ecut=    50.00 Ry     beta= 0.31
     Davidson diagonalization with overlap
     ethr =  3.90E-04,  avg # of iterations =  2.0

     negative rho (up, down):  1.655E-03 0.000E+00

     total cpu time spent up to now is        2.2 secs

     total energy              =     -39.42802920 Ry
     Harris-Foulkes estimate   =     -39.42773851 Ry
     estimated scf accuracy    <       0.00384532 Ry

     iteration #  5     ecut=    50.00 Ry     beta= 0.31
     Davidson diagonalization with overlap
     ethr =  4.81E-05,  avg # of iterations =  3.0

     negative rho (up, down):  1.650E-03 0.000E+00

     total cpu time spent up to now is        2.4 secs

     total energy              =     -39.42823651 Ry
     Harris-Foulkes estimate   =     -39.42862794 Ry
     estimated scf accuracy    <       0.00156684 Ry

     iteration #  6     ecut=    50.00 Ry     beta= 0.31
     Davidson diagonalization with overlap
     ethr =  1.96E-05,  avg # of iterations =  1.0

     negative rho (up, down):  1.662E-03 0.000E+00

     total cpu time spent up to now is        2.5 secs

     total energy              =     -39.42781680 Ry
     Harris-Foulkes estimate   =     -39.42825932 Ry
     estimated scf accuracy    <       0.00086322 Ry

     iteration #  7     ecut=    50.00 Ry     beta= 0.31
     Davidson diagonalization with overlap
     ethr =  1.08E-05,  avg # of iterations =  3.0

     negative rho (up, down):  1.662E-03 0.000E+00

     total cpu time spent up to now is        2.6 secs

     total energy              =     -39.42800122 Ry
     Harris-Foulkes estimate   =     -39.42803446 Ry
     estimated scf accuracy    <       0.00011237 Ry

     iteration #  8     ecut=    50.00 Ry     beta= 0.31
     Davidson diagonalization with overlap
     ethr =  1.40E-06,  avg # of iterations =  1.0

     negative rho (up, down):  1.663E-03 0.000E+00

     total cpu time spent up to now is        2.7 secs

     total energy              =     -39.42798819 Ry
     Harris-Foulkes estimate   =     -39.42800714 Ry
     estimated scf accuracy    <       0.00004086 Ry

     iteration #  9     ecut=    50.00 Ry     beta= 0.31
     Davidson diagonalization with overlap
     ethr =  5.11E-07,  avg # of iterations =  2.0

     negative rho (up, down):  1.663E-03 0.000E+00

     total cpu time spent up to now is        2.8 secs

     total energy              =     -39.42800222 Ry
     Harris-Foulkes estimate   =     -39.42800178 Ry
     estimated scf accuracy    <       0.00000419 Ry

     iteration # 10     ecut=    50.00 Ry     beta= 0.31
     Davidson diagonalization with overlap
     ethr =  5.24E-08,  avg # of iterations =  1.0

     negative rho (up, down):  1.664E-03 0.000E+00

     total cpu time spent up to now is        2.9 secs

     total energy              =     -39.42800247 Ry
     Harris-Foulkes estimate   =     -39.42800249 Ry
     estimated scf accuracy    <       0.00000497 Ry

     iteration # 11     ecut=    50.00 Ry     beta= 0.31
     Davidson diagonalization with overlap
     ethr =  5.24E-08,  avg # of iterations =  1.0

     negative rho (up, down):  1.664E-03 0.000E+00

     total cpu time spent up to now is        3.0 secs

     total energy              =     -39.42800115 Ry
     Harris-Foulkes estimate   =     -39.42800252 Ry
     estimated scf accuracy    <       0.00000536 Ry

     iteration # 12     ecut=    50.00 Ry     beta= 0.31
     Davidson diagonalization with overlap
     ethr =  5.24E-08,  avg # of iterations =  1.0

     negative rho (up, down):  1.665E-03 0.000E+00

     total cpu time spent up to now is        3.1 secs

     total energy              =     -39.42800058 Ry
     Harris-Foulkes estimate   =     -39.42800126 Ry
     estimated scf accuracy    <       0.00000225 Ry

     iteration # 13     ecut=    50.00 Ry     beta= 0.31
     Davidson diagonalization with overlap
     ethr =  2.82E-08,  avg # of iterations =  2.0

     negative rho (up, down):  1.665E-03 0.000E+00

     total cpu time spent up to now is        3.2 secs

     total energy              =     -39.42800075 Ry
     Harris-Foulkes estimate   =     -39.42800080 Ry
     estimated scf accuracy    <       0.00000030 Ry

     iteration # 14     ecut=    50.00 Ry     beta= 0.31
     Davidson diagonalization with overlap
     ethr =  3.76E-09,  avg # of iterations =  2.0

     negative rho (up, down):  1.665E-03 0.000E+00

     total cpu time spent up to now is        3.3 secs

     total energy              =     -39.42800071 Ry
     Harris-Foulkes estimate   =     -39.42800077 Ry
     estimated scf accuracy    <       0.00000012 Ry

     iteration # 15     ecut=    50.00 Ry     beta= 0.31
     Davidson diagonalization with overlap
     ethr =  1.51E-09,  avg # of iterations =  2.0

     negative rho (up, down):  1.665E-03 0.000E+00

     total cpu time spent up to now is        3.4 secs

     total energy              =     -39.42800074 Ry
     Harris-Foulkes estimate   =     -39.42800075 Ry
     estimated scf accuracy    <       0.00000001 Ry

     iteration # 16     ecut=    50.00 Ry     beta= 0.31
     Davidson diagonalization with overlap
     ethr =  1.53E-10,  avg # of iterations =  2.0

     negative rho (up, down):  1.665E-03 0.000E+00

     total cpu time spent up to now is        3.5 secs

     End of self-consistent calculation

          k = 0.0000 0.0000 0.0000 (  2432 PWs)   bands (ev):

   -21.5598  -9.4870  -5.6305  -5.6305   0.1801

     occupation numbers 
     1.0000   1.0000   1.0000   1.0000   0.0000

     the Fermi energy is    -2.3333 ev

!    total energy              =     -39.42800074 Ry
     Harris-Foulkes estimate   =     -39.42800075 Ry
     estimated scf accuracy    <          2.5E-09 Ry

     convergence has been achieved in  16 iterations

     Using ACE for calculation of exact exchange

     EXX grid:    19030 G-vectors     FFT dimensions: (  24,  24, 180)

     negative rho (up, down):  1.665E-03 0.000E+00

     EXX: now go back to refine exchange calculation

     total cpu time spent up to now is        4.4 secs

     Self-consistent Calculation

     iteration #  1     ecut=    50.00 Ry     beta= 0.31
     Davidson diagonalization with overlap
     ethr =  1.53E-10,  avg # of iterations =  8.0

     negative rho (up, down):  1.697E-03 0.000E+00

     total cpu time spent up to now is        4.6 secs

     total energy              =     -36.13958794 Ry
     Harris-Foulkes estimate   =     -36.13989685 Ry
     estimated scf accuracy    <       0.00078930 Ry

     iteration #  2     ecut=    50.00 Ry     beta= 0.31
     Davidson diagonalization with overlap
     ethr =  9.87E-06,  avg # of iterations =  4.0

     negative rho (up, down):  1.706E-03 0.000E+00

     total cpu time spent up to now is        4.7 secs

     total energy              =     -35.96697130 Ry
     Harris-Foulkes estimate   =     -35.96735347 Ry
     estimated scf accuracy    <       0.00282414 Ry

     iteration #  3     ecut=    50.00 Ry     beta= 0.31
     Davidson diagonalization with overlap
     ethr =  9.87E-06,  avg # of iterations =  1.0

     negative rho (up, down):  1.781E-03 0.000E+00

     total cpu time spent up to now is        4.9 secs

     total energy              =     -35.96568424 Ry
     Harris-Foulkes estimate   =     -35.96698859 Ry
     estimated scf accuracy    <       0.00194961 Ry

     iteration #  4     ecut=    50.00 Ry     beta= 0.31
     Davidson diagonalization with overlap
     ethr =  9.87E-06,  avg # of iterations =  3.0

     negative rho (up, down):  1.833E-03 0.000E+00

     total cpu time spent up to now is        5.1 secs

     total energy              =     -35.96637152 Ry
     Harris-Foulkes estimate   =     -35.96627394 Ry
     estimated scf accuracy    <       0.00024853 Ry

     iteration #  5     ecut=    50.00 Ry     beta= 0.31
     Davidson diagonalization with overlap
     ethr =  3.11E-06,  avg # of iterations =  2.0

     negative rho (up, down):  1.813E-03 0.000E+00

     total cpu time spent up to now is        5.2 secs

     total energy              =     -35.96606764 Ry
     Harris-Foulkes estimate   =     -35.96639781 Ry
     estimated scf accuracy    <       0.00052654 Ry

     iteration #  6     ecut=    50.00 Ry     beta= 0.31
     Davidson diagonalization with overlap
     ethr =  3.11E-06,  avg # of iterations =  2.0

     negative rho (up, down):  1.816E-03 0.000E+00

     total cpu time spent up to now is        5.4 secs

     total energy              =     -35.96618158 Ry
     Harris-Foulkes estimate   =     -35.96618223 Ry
     estimated scf accuracy    <       0.00000197 Ry

     iteration #  7     ecut=    50.00 Ry     beta= 0.31
     Davidson diagonalization with overlap
     ethr =  2.46E-08,  avg # of iterations =  2.0

     negative rho (up, down):  1.816E-03 0.000E+00

     total cpu time spent up to now is        5.5 secs

     total energy              =     -35.96618243 Ry
     Harris-Foulkes estimate   =     -35.96618266 Ry
     estimated scf accuracy    <       0.00000091 Ry

     iteration #  8     ecut=    50.00 Ry     beta= 0.31
     Davidson diagonalization with overlap
     ethr =  1.14E-08,  avg # of iterations =  1.0

     negative rho (up, down):  1.816E-03 0.000E+00

     total cpu time spent up to now is        5.7 secs

     total energy              =     -35.96618217 Ry
     Harris-Foulkes estimate   =     -35.96618245 Ry
     estimated scf accuracy    <       0.00000052 Ry

     iteration #  9     ecut=    50.00 Ry     beta= 0.31
     Davidson diagonalization with overlap
     ethr =  6.48E-09,  avg # of iterations =  2.0

     negative rho (up, down):  1.816E-03 0.000E+00

     total cpu time spent up to now is        5.8 secs

     End of self-consistent calculation

          k = 0.0000 0.0000 0.0000 (  2432 PWs)   bands (ev):

   -23.6240 -10.6264  -7.3445  -7.3445   0.3839

     occupation numbers 
     1.0000   1.0000   1.0000   1.0000   0.0000

     the Fermi energy is    -5.4820 ev

!    total energy              =     -35.96618226 Ry
     Harris-Foulkes estimate   =     -35.96618226 Ry
     estimated scf accuracy    <          5.6E-09 Ry

     convergence has been achieved in   9 iterations

     Using ACE for calculation of exact exchange

     total energy              =     -35.96648316 Ry
     Harris-Foulkes estimate   =     -35.96648315 Ry
     est. exchange err (dexx)  =       0.00030090 Ry
     - averaged Fock potential =       2.93093817 Ry
     + Fock energy (ACE)       =      -1.46491689 Ry

     EXX: now go back to refine exchange calculation

     total cpu time spent up to now is        6.0 secs

     Self-consistent Calculation

     iteration #  1     ecut=    50.00 Ry     beta= 0.31
     Davidson diagonalization with overlap
     ethr =  6.48E-09,  avg # of iterations =  4.0

     negative rho (up, down):  1.816E-03 0.000E+00

     total cpu time spent up to now is        6.1 secs

     total energy              =     -35.96651093 Ry
     Harris-Foulkes estimate   =     -35.96651518 Ry
     estimated scf accuracy    <       0.00001155 Ry

     iteration #  2     ecut=    50.00 Ry     beta= 0.31
     Davidson diagonalization with overlap
     ethr =  1.44E-07,  avg # of iterations =  1.0

     negative rho (up, down):  1.816E-03 0.000E+00

     total cpu time spent up to now is        6.3 secs

     total energy              =     -35.96650931 Ry
     Harris-Foulkes estimate   =     -35.96651135 Ry
     estimated scf accuracy    <       0.00000355 Ry

     iteration #  3     ecut=    50.00 Ry     beta= 0.31
     Davidson diagonalization with overlap
     ethr =  4.43E-08,  avg # of iterations =  2.0

     negative rho (up, down):  1.817E-03 0.000E+00

     total cpu time spent up to now is        6.5 secs

     total energy              =     -35.96650959 Ry
     Harris-Foulkes estimate   =     -35.96650972 Ry
     estimated scf accuracy    <       0.00000022 Ry

     iteration #  4     ecut=    50.00 Ry     beta= 0.31
     Davidson diagonalization with overlap
     ethr =  2.78E-09,  avg # of iterations =  2.0

     negative rho (up, down):  1.817E-03 0.000E+00

     total cpu time spent up to now is        6.6 secs

     total energy              =     -35.96650964 Ry
     Harris-Foulkes estimate   =     -35.96650967 Ry
     estimated scf accuracy    <       0.00000007 Ry

     iteration #  5     ecut=    50.00 Ry     beta= 0.31
     Davidson diagonalization with overlap
     ethr =  9.31E-10,  avg # of iterations =  1.0

     negative rho (up, down):  1.817E-03 0.000E+00

     total cpu time spent up to now is        6.7 secs

     total energy              =     -35.96650963 Ry
     Harris-Foulkes estimate   =     -35.96650965 Ry
     estimated scf accuracy    <       0.00000002 Ry

     iteration #  6     ecut=    50.00 Ry     beta= 0.31
     Davidson diagonalization with overlap
     ethr =  2.96E-10,  avg # of iterations =  2.0

     negative rho (up, down):  1.817E-03 0.000E+00

     total cpu time spent up to now is        6.9 secs

     End of self-consistent calculation

          k = 0.0000 0.0000 0.0000 (  2432 PWs)   bands (ev):

   -23.6445 -10.6447  -7.3670  -7.3669   0.3870

     occupation numbers 
     1.0000   1.0000   1.0000   1.0000   0.0000

     the Fermi energy is    -5.4848 ev

!    total energy              =     -35.96650964 Ry
     Harris-Foulkes estimate   =     -35.96650964 Ry
     estimated scf accuracy    <          2.3E-09 Ry

     convergence has been achieved in   6 iterations

     Using ACE for calculation of exact exchange

     total energy              =     -35.96651303 Ry
     Harris-Foulkes estimate   =     -35.96651303 Ry
     est. exchange err (dexx)  =       0.00000339 Ry
     - averaged Fock potential =       2.92966473 Ry
     + Fock energy (ACE)       =      -1.46475123 Ry

     EXX: now go back to refine exchange calculation

     total cpu time spent up to now is        7.0 secs

     Self-consistent Calculation

     iteration #  1     ecut=    50.00 Ry     beta= 0.31
     Davidson diagonalization with overlap
     ethr =  2.96E-10,  avg # of iterations =  4.0

     negative rho (up, down):  1.817E-03 0.000E+00

     total cpu time spent up to now is        7.2 secs

     total energy              =     -35.96651367 Ry
     Harris-Foulkes estimate   =     -35.96651373 Ry
     estimated scf accuracy    <       0.00000020 Ry

     iteration #  2     ecut=    50.00 Ry     beta= 0.31
     Davidson diagonalization with overlap
     ethr =  2.54E-09,  avg # of iterations =  1.0

     negative rho (up, down):  1.817E-03 0.000E+00

     total cpu time spent up to now is        7.3 secs

     total energy              =     -35.96651364 Ry
     Harris-Foulkes estimate   =     -35.96651368 Ry
     estimated scf accuracy    <       0.00000007 Ry

     iteration #  3     ecut=    50.00 Ry     beta= 0.31
     Davidson diagonalization with overlap
     ethr =  9.12E-10,  avg # of iterations =  2.0

     negative rho (up, down):  1.817E-03 0.000E+00

     total cpu time spent up to now is        7.4 secs

     End of self-consistent calculation

          k = 0.0000 0.0000 0.0000 (  2432 PWs)   bands (ev):

   -23.6468 -10.6461  -7.3696  -7.3696   0.3865

     occupation numbers 
     1.0000   1.0000   1.0000   1.0000   0.0000

     the Fermi energy is    -5.4858 ev

!    total energy              =     -35.96651365 Ry
     Harris-Foulkes estimate   =     -35.96651365 Ry
     estimated scf accuracy    <          3.3E-09 Ry

     convergence has been achieved in   3 iterations

     Using ACE for calculation of exact exchange

     total energy              =     -35.96651379 Ry
     Harris-Foulkes estimate   =     -35.96651379 Ry
     est. exchange err (dexx)  =       0.00000014 Ry
     - averaged Fock potential =       2.92948497 Ry
     + Fock energy (ACE)       =      -1.46473388 Ry

     EXX: now go back to refine exchange calculation

     total cpu time spent up to now is        7.6 secs

     Self-consistent Calculation

     iteration #  1     ecut=    50.00 Ry     beta= 0.31
     Davidson diagonalization with overlap
     ethr =  9.12E-10,  avg # of iterations =  2.0

     negative rho (up, down):  1.817E-03 0.000E+00

     total cpu time spent up to now is        7.7 secs

     total energy              =     -35.96651382 Ry
     Harris-Foulkes estimate   =     -35.96651383 Ry
     estimated scf accuracy    <       0.00000002 Ry

     iteration #  2     ecut=    50.00 Ry     beta= 0.31
     Davidson diagonalization with overlap
     ethr =  2.90E-10,  avg # of iterations =  1.0

     negative rho (up, down):  1.817E-03 0.000E+00

     total cpu time spent up to now is        7.9 secs

     End of self-consistent calculation

          k = 0.0000 0.0000 0.0000 (  2432 PWs)   bands (ev):

   -23.6468 -10.6460  -7.3697  -7.3697   0.3865

     occupation numbers 
     1.0000   1.0000   1.0000   1.0000   0.0000

     the Fermi energy is    -5.4858 ev

!    total energy              =     -35.96651382 Ry
     Harris-Foulkes estimate   =     -35.96651382 Ry
     estimated scf accuracy    <          4.9E-09 Ry

     convergence has been achieved in   2 iterations

     Using ACE for calculation of exact exchange

     total energy              =     -35.96651383 Ry
     Harris-Foulkes estimate   =     -35.96651384 Ry
     est. exchange err (dexx)  =       0.00000001 Ry
     - averaged Fock potential =       2.92947538 Ry
     + Fock energy (ACE)       =      -1.46474151 Ry

     EXX: now go back to refine exchange calculation

     total cpu time spent up to now is        8.0 secs

     Self-consistent Calculation

     iteration #  1     ecut=    50.00 Ry     beta= 0.31
     Davidson diagonalization with overlap
     ethr =  2.90E-10,  avg # of iterations =  2.0

     Threshold (ethr) on eigenvalues was too large:
     Diagonalizing with lowered threshold

     Davidson diagonalization with overlap
     ethr =  1.28E-11,  avg # of iterations =  1.0

     negative rho (up, down):  1.817E-03 0.000E+00

     total cpu time spent up to now is        8.2 secs

     End of self-consistent calculation

          k = 0.0000 0.0000 0.0000 (  2432 PWs)   bands (ev):

   -23.6470 -10.6461  -7.3700  -7.3699   0.3865

     occupation numbers 
     1.0000   1.0000   1.0000   1.0000   0.0000

     the Fermi energy is    -5.4858 ev

!    total energy              =     -35.96651383 Ry
     Harris-Foulkes estimate   =     -35.96651383 Ry
     estimated scf accuracy    <          9.0E-10 Ry

     convergence has been achieved in   1 iterations

     Using ACE for calculation of exact exchange

!!   total energy              =     -35.96651383 Ry
     Harris-Foulkes estimate   =     -35.96651383 Ry
     est. exchange err (dexx)  =          4.2E-10 Ry
     - averaged Fock potential =       2.92947768 Ry
     + Fock energy (ACE)       =      -1.46473617 Ry

     EXX self-consistency reached

     negative rho (up, down):  1.817E-03 0.000E+00

     Forces acting on atoms (cartesian axes, Ry/au):

     atom    1 type  1   force =     0.00000000    0.00000000    0.00000000
     atom    2 type  2   force =     0.00000000    0.00000000    0.00000000
     The non-local contrib.  to forces
     atom    1 type  1   force =     0.00000000    0.00000000    0.00000000
     atom    2 type  2   force =     0.00000000    0.00000000    0.00000000
     The ionic contribution  to forces
     atom    1 type  1   force =    -0.00000146    0.00000084   -0.00000000
     atom    2 type  2   force =     0.00000146   -0.00000084    0.00000000
     The local contribution  to forces
     atom    1 type  1   force =     0.00000146   -0.00000085   -0.00000000
     atom    2 type  2   force =    -0.00000169    0.00000098   -0.00000000
     The core correction contribution to forces
     atom    1 type  1   force =     0.00000002   -0.00000001   -0.00000000
     atom    2 type  2   force =     0.00000001   -0.00000000    0.00000000
     The Hubbard contrib.    to forces
     atom    1 type  1   force =     0.00000000    0.00000000    0.00000000
     atom    2 type  2   force =     0.00000000    0.00000000    0.00000000
     The SCF correction term to forces
     atom    1 type  1   force =     0.00000000   -0.00000000    0.00000000
     atom    2 type  2   force =     0.00000000   -0.00000000    0.00000000

     Total force =     0.000000     Total SCF correction =     0.000000


     Computing stress (Cartesian axis) and pressure


     negative rho (up, down):  1.817E-03 0.000E+00
     Message from routine exx_stress:
     USPP stress not tested
          total   stress  (Ry/bohr**3)                   (kbar)     P=   27.59
   0.00009592  -0.00000000   0.00000000         14.11     -0.00      0.00
   0.00000000   0.00009592  -0.00000000          0.00     14.11     -0.00
   0.00000000  -0.00000000   0.00037089          0.00     -0.00     54.56

     kinetic stress (kbar)   2069.94     -0.00      0.00
                               -0.00   2069.94      0.00
                                0.00      0.00   1971.25

     local   stress (kbar) -40851.82     -0.00      0.00
                               -0.00 -40851.82      0.00
                                0.00      0.00  40911.28

     nonloc. stress (kbar)    -30.87     -0.00      0.00
                               -0.00    -30.87      0.00
                                0.00     -0.00     -7.12

     hartree stress (kbar)  19587.00      0.00     -0.00
                                0.00  19587.00     -0.00
                               -0.00     -0.00 -19152.86

     exc-cor stress (kbar)   -150.12      0.00     -0.00
                                0.00   -150.12     -0.00
                               -0.00     -0.00   -157.48

     corecor stress (kbar)   -197.42     -0.00      0.00
                               -0.00   -197.42      0.00
                                0.00      0.00   -187.30

     ewald   stress (kbar)  19699.13      0.00      0.00
                                0.00  19699.13      0.00
                                0.00      0.00 -23264.88

     hubbard stress (kbar)      0.00      0.00      0.00
                                0.00      0.00      0.00
                                0.00      0.00      0.00

     london  stress (kbar)      0.00      0.00      0.00
                                0.00      0.00      0.00
                                0.00      0.00      0.00

     DFT-D3  stress (kbar)      0.00      0.00      0.00
                                0.00      0.00      0.00
                                0.00      0.00      0.00

     XDM     stress (kbar)      0.00      0.00      0.00
                                0.00      0.00      0.00
                                0.00      0.00      0.00

     dft-nl  stress (kbar)      0.00      0.00      0.00
                                0.00      0.00      0.00
                                0.00      0.00      0.00

     TS-vdW  stress (kbar)      0.00      0.00      0.00
                                0.00      0.00      0.00
                                0.00      0.00      0.00


     EXX     stress (kbar)   -111.73      0.00      0.00
                                0.00   -111.73      0.00
                                0.00      0.00    -58.32



     Writing output data file hBN.save/
 
     init_run     :      0.17s CPU      0.30s WALL (       1 calls)
     electrons    :      3.36s CPU      5.52s WALL (       6 calls)
     forces       :      0.08s CPU      0.08s WALL (       1 calls)
     stress       :      0.16s CPU      0.16s WALL (       1 calls)

     Called by init_run:
     wfcinit      :      0.01s CPU      0.13s WALL (       1 calls)
     wfcinit:atom :      0.00s CPU      0.00s WALL (       1 calls)
     wfcinit:wfcr :      0.01s CPU      0.01s WALL (       1 calls)
     potinit      :      0.09s CPU      0.10s WALL (       1 calls)
     hinit0       :      0.06s CPU      0.06s WALL (       1 calls)

     Called by electrons:
     c_bands      :      0.28s CPU      0.92s WALL (      38 calls)
     sum_band     :      0.10s CPU      0.12s WALL (      38 calls)
     v_of_rho     :      1.23s CPU      1.25s WALL (      39 calls)
     v_h          :      0.01s CPU      0.01s WALL (      39 calls)
     v_xc         :      1.28s CPU      1.31s WALL (      41 calls)
     newd         :      0.06s CPU      0.07s WALL (      38 calls)
     PAW_pot      :      1.78s CPU      1.83s WALL (      39 calls)
     mix_rho      :      0.03s CPU      0.03s WALL (      38 calls)

     Called by c_bands:
     init_us_2    :      0.01s CPU      0.01s WALL (     113 calls)
     regterg      :      0.27s CPU      0.29s WALL (      38 calls)

     Called by sum_band:
     sum_band:bec :      0.00s CPU      0.00s WALL (      38 calls)
     addusdens    :      0.05s CPU      0.06s WALL (      38 calls)

     Called by *egterg:
     h_psi        :      0.12s CPU      0.14s WALL (     120 calls)
     s_psi        :      0.00s CPU      0.00s WALL (     120 calls)
     g_psi        :      0.00s CPU      0.00s WALL (      81 calls)
     rdiaghg      :      0.12s CPU      0.13s WALL (     113 calls)
     regterg:over :      0.02s CPU      0.02s WALL (      81 calls)
     regterg:upda :      0.00s CPU      0.00s WALL (      81 calls)
     regterg:last :      0.00s CPU      0.00s WALL (      43 calls)
     rdiaghg:chol :      0.01s CPU      0.01s WALL (     113 calls)
     rdiaghg:inve :      0.00s CPU      0.00s WALL (     113 calls)
     rdiaghg:para :      0.01s CPU      0.01s WALL (     226 calls)

     Called by h_psi:
     h_psi:pot    :      0.12s CPU      0.13s WALL (     120 calls)
     h_psi:calbec :      0.00s CPU      0.00s WALL (     120 calls)
     vloc_psi     :      0.11s CPU      0.12s WALL (     120 calls)
     add_vuspsi   :      0.00s CPU      0.00s WALL (     120 calls)

     General routines
     calbec       :      0.01s CPU      0.01s WALL (     269 calls)
     fft          :      0.20s CPU      0.21s WALL (     364 calls)
     ffts         :      0.01s CPU      0.01s WALL (      38 calls)
     fftw         :      0.12s CPU      0.14s WALL (     734 calls)
     fftc         :      0.03s CPU      0.03s WALL (     130 calls)
     fftcw        :      0.01s CPU      0.01s WALL (      71 calls)
 
     Parallel routines
     fft_scatt_xy :      0.02s CPU      0.02s WALL (    1337 calls)
     fft_scatt_yz :      0.18s CPU      0.19s WALL (    1337 calls)

     EXX routines
     exx_grid     :      0.00s CPU      0.00s WALL (       1 calls)
     exxinit      :      0.63s CPU      0.64s WALL (       6 calls)
     vexx         :      0.10s CPU      0.10s WALL (       6 calls)
     matcalc      :      0.00s CPU      0.00s WALL (     100 calls)
     aceupdate    :      0.00s CPU      0.00s WALL (       6 calls)
     vexxace      :      0.00s CPU      0.01s WALL (      83 calls)
     aceinit      :      0.10s CPU      0.11s WALL (       6 calls)

     EXX+US  routines
     becxx        :      0.00s CPU      0.00s WALL (       6 calls)
     addusxx      :      0.02s CPU      0.02s WALL (     120 calls)
     newdxx       :      0.02s CPU      0.02s WALL (     120 calls)
     qvan_init    :      0.01s CPU      0.01s WALL (       6 calls)
     nlxx_pot     :      0.00s CPU      0.00s WALL (      30 calls)

     EXX+PAW routines
     PAW_newdxx   :      0.00s CPU      0.00s WALL (     120 calls)

     PAW routines
     PAW_pot      :      1.78s CPU      1.83s WALL (      39 calls)
     PAW_symme    :      0.00s CPU      0.00s WALL (      76 calls)
 
     PWSCF        :      5.55s CPU      9.53s WALL

 
   This run was terminated on:  11:59:53  14Jan2021            

=------------------------------------------------------------------------------=
   JOB DONE.
=------------------------------------------------------------------------------=
