
     Program PWSCF v.6.4.1 starts on 14Jan2021 at 12: 0:19 

     This program is part of the open-source Quantum ESPRESSO suite
     for quantum simulation of materials; please cite
         "P. Giannozzi et al., J. Phys.:Condens. Matter 21 395502 (2009);
         "P. Giannozzi et al., J. Phys.:Condens. Matter 29 465901 (2017);
          URL http://www.quantum-espresso.org", 
     in publications or presentations arising from this work. More details at
     http://www.quantum-espresso.org/quote

     Parallel version (MPI), running on    16 processors

     MPI processes distributed on     1 nodes
     R & G space division:  proc/nbgrp/npool/nimage =      16
     Waiting for input...
     Reading input from standard input
Warning: card &IONS ignored
Warning: card     ION_DYNAMICS="BFGS" ignored
Warning: card / ignored

     Current dimensions of program PWSCF are:
     Max number of different atomic species (ntypx) = 10
     Max number of k-points (npk) =  40000
     Max angular momentum in pseudopotentials (lmaxx) =  3

     IMPORTANT: XC functional enforced from input :
     Exchange-correlation      = HSE ( 1  4 12  4 0 0)
     EXX-fraction              =        0.25
     Using LIBXC version       =    4   3   4
     Any further DFT definition will be discarded
     Please, verify this is what you really want

               file N.pbe-n-kjpaw_psl.1.0.0.UPF: wavefunction(s)  2S renormalized

     gamma-point specific algorithms are used
     Message from routine setup :
     BEWARE: nonlinear core correction is not consistent with hybrid XC

     Subspace diagonalization in iterative solution of the eigenvalue problem:
     one sub-group per band group will be used
     scalapack distributed-memory algorithm (size of sub-group:  2*  2 procs)

     EXX: grid of k+q points same as grid of k-points
 
     Parallelization info
     --------------------
     sticks:   dense  smooth     PW     G-vecs:    dense   smooth      PW
     Min          19      19      4                 2342     2342     272
     Max          26      26      6                 2432     2432     330
     Sum         337     337     85                38373    38373    4925
 


     bravais-lattice index     =            4
     lattice parameter (alat)  =       4.8944  a.u.
     unit-cell volume          =     811.2054 (a.u.)^3
     number of atoms/cell      =            2
     number of atomic types    =            2
     number of electrons       =         8.00
     number of Kohn-Sham states=            5
     kinetic-energy cutoff     =      50.0000  Ry
     charge density cutoff     =     200.0000  Ry
     cutoff for Fock operator  =     200.0000  Ry
     convergence threshold     =      1.0E-08
     mixing beta               =       0.3100
     number of iterations used =            8  plain     mixing
     Exchange-correlation      = HSE ( 1  4 12  4 0 0)
     EXX-fraction              =        0.25
     Using LIBXC version       =    4   3   4

     celldm(1)=   4.894390  celldm(2)=   0.000000  celldm(3)=   7.989220
     celldm(4)=   0.000000  celldm(5)=   0.000000  celldm(6)=   0.000000

     crystal axes: (cart. coord. in units of alat)
               a(1) = (   1.000000   0.000000   0.000000 )  
               a(2) = (  -0.500000   0.866025   0.000000 )  
               a(3) = (   0.000000   0.000000   7.989220 )  

     reciprocal axes: (cart. coord. in units 2 pi/alat)
               b(1) = (  1.000000  0.577350  0.000000 )  
               b(2) = (  0.000000  1.154701  0.000000 )  
               b(3) = (  0.000000  0.000000  0.125169 )  


     PseudoPot. # 1 for B  read from file:
     ./pseudo/B.pbe-n-kjpaw_psl.1.0.0.UPF
     MD5 check sum: 8c825a5969375aca5c2c6ad5945b3059
     Pseudo is Projector augmented-wave + core cor, Zval =  3.0
     Generated using "atomic" code by A. Dal Corso v.6.3
     Shape of augmentation charge: PSQ
     Using radial grid of 1059 points,  4 beta functions with: 
                l(1) =   0
                l(2) =   0
                l(3) =   1
                l(4) =   1
     Q(r) pseudized with 0 coefficients 


     PseudoPot. # 2 for N  read from file:
     ./pseudo/N.pbe-n-kjpaw_psl.1.0.0.UPF
     MD5 check sum: 14c48229446f9f2d411169a3abcbc3fa
     Pseudo is Projector augmented-wave + core cor, Zval =  5.0
     Generated using "atomic" code by A. Dal Corso v.6.3
     Shape of augmentation charge: PSQ
     Using radial grid of 1085 points,  4 beta functions with: 
                l(1) =   0
                l(2) =   0
                l(3) =   1
                l(4) =   1
     Q(r) pseudized with 0 coefficients 


     atomic species   valence    mass     pseudopotential
        B              3.00    10.00000     B ( 1.00)
        N              5.00    14.00000     N ( 1.00)

     12 Sym. Ops. (no inversion) found


                                    s                        frac. trans.

      isym =  1     identity                                     

 cryst.   s( 1) = (     1          0          0      )
                  (     0          1          0      )
                  (     0          0          1      )

 cart.    s( 1) = (  1.0000000  0.0000000  0.0000000 )
                  (  0.0000000  1.0000000  0.0000000 )
                  (  0.0000000  0.0000000  1.0000000 )


      isym =  2     180 deg rotation - cart. axis [0,1,0]        

 cryst.   s( 2) = (    -1          0          0      )
                  (     1          1          0      )
                  (     0          0         -1      )

 cart.    s( 2) = ( -1.0000000  0.0000000  0.0000000 )
                  (  0.0000000  1.0000000  0.0000000 )
                  (  0.0000000  0.0000000 -1.0000000 )


      isym =  3     120 deg rotation - cryst. axis [0,0,1]       

 cryst.   s( 3) = (     0          1          0      )
                  (    -1         -1          0      )
                  (     0          0          1      )

 cart.    s( 3) = ( -0.5000000 -0.8660254  0.0000000 )
                  (  0.8660254 -0.5000000  0.0000000 )
                  (  0.0000000  0.0000000  1.0000000 )


      isym =  4     120 deg rotation - cryst. axis [0,0,-1]      

 cryst.   s( 4) = (    -1         -1          0      )
                  (     1          0          0      )
                  (     0          0          1      )

 cart.    s( 4) = ( -0.5000000  0.8660254  0.0000000 )
                  ( -0.8660254 -0.5000000  0.0000000 )
                  (  0.0000000  0.0000000  1.0000000 )


      isym =  5     180 deg rotation - cryst. axis [1,-1,0]      

 cryst.   s( 5) = (     0         -1          0      )
                  (    -1          0          0      )
                  (     0          0         -1      )

 cart.    s( 5) = (  0.5000000 -0.8660254  0.0000000 )
                  ( -0.8660254 -0.5000000  0.0000000 )
                  (  0.0000000  0.0000000 -1.0000000 )


      isym =  6     180 deg rotation - cryst. axis [2,1,0]       

 cryst.   s( 6) = (     1          1          0      )
                  (     0         -1          0      )
                  (     0          0         -1      )

 cart.    s( 6) = (  0.5000000  0.8660254  0.0000000 )
                  (  0.8660254 -0.5000000  0.0000000 )
                  (  0.0000000  0.0000000 -1.0000000 )


      isym =  7     inv. 180 deg rotation - cart. axis [0,0,1]   

 cryst.   s( 7) = (     1          0          0      )
                  (     0          1          0      )
                  (     0          0         -1      )

 cart.    s( 7) = (  1.0000000  0.0000000  0.0000000 )
                  (  0.0000000  1.0000000  0.0000000 )
                  (  0.0000000  0.0000000 -1.0000000 )


      isym =  8     inv. 180 deg rotation - cart. axis [1,0,0]   

 cryst.   s( 8) = (    -1          0          0      )
                  (     1          1          0      )
                  (     0          0          1      )

 cart.    s( 8) = ( -1.0000000  0.0000000  0.0000000 )
                  (  0.0000000  1.0000000  0.0000000 )
                  (  0.0000000  0.0000000  1.0000000 )


      isym =  9     inv.  60 deg rotation - cryst. axis [0,0,1]  

 cryst.   s( 9) = (    -1         -1          0      )
                  (     1          0          0      )
                  (     0          0         -1      )

 cart.    s( 9) = ( -0.5000000  0.8660254  0.0000000 )
                  ( -0.8660254 -0.5000000  0.0000000 )
                  (  0.0000000  0.0000000 -1.0000000 )


      isym = 10     inv.  60 deg rotation - cryst. axis [0,0,-1] 

 cryst.   s(10) = (     0          1          0      )
                  (    -1         -1          0      )
                  (     0          0         -1      )

 cart.    s(10) = ( -0.5000000 -0.8660254  0.0000000 )
                  (  0.8660254 -0.5000000  0.0000000 )
                  (  0.0000000  0.0000000 -1.0000000 )


      isym = 11     inv. 180 deg rotation - cryst. axis [0,1,0]  

 cryst.   s(11) = (     1          1          0      )
                  (     0         -1          0      )
                  (     0          0          1      )

 cart.    s(11) = (  0.5000000  0.8660254  0.0000000 )
                  (  0.8660254 -0.5000000  0.0000000 )
                  (  0.0000000  0.0000000  1.0000000 )


      isym = 12     inv. 180 deg rotation - cryst. axis [1,1,0]  

 cryst.   s(12) = (     0         -1          0      )
                  (    -1          0          0      )
                  (     0          0          1      )

 cart.    s(12) = (  0.5000000 -0.8660254  0.0000000 )
                  ( -0.8660254 -0.5000000  0.0000000 )
                  (  0.0000000  0.0000000  1.0000000 )


     point group D_3h (-62m)
     there are  6 classes
     the character table:

       E     2C3   3C2   s_h   2S3   3s_v 
A'_1   1.00  1.00  1.00  1.00  1.00  1.00
A'_2   1.00  1.00 -1.00  1.00  1.00 -1.00
E'     2.00 -1.00  0.00  2.00 -1.00  0.00
A''1   1.00  1.00  1.00 -1.00 -1.00 -1.00
A''2   1.00  1.00 -1.00 -1.00 -1.00  1.00
E''    2.00 -1.00  0.00 -2.00  1.00  0.00

     the symmetry operations in each class and the name of the first element:

     E        1
          identity                                               
     2C3      3    4
          120 deg rotation - cryst. axis [0,0,1]                 
     3C2      2    6    5
          180 deg rotation - cart. axis [0,1,0]                  
     s_h      7
          inv. 180 deg rotation - cart. axis [0,0,1]             
     2S3      9   10
          inv.  60 deg rotation - cryst. axis [0,0,1]            
     3s_v     8   11   12
          inv. 180 deg rotation - cart. axis [1,0,0]             

   Cartesian axes

     site n.     atom                  positions (alat units)
         1           B   tau(   1) = (   0.5000000   0.2886751   0.0000000  )
         2           N   tau(   2) = (  -0.0000000   0.5773503   0.0000000  )

   Crystallographic axes

     site n.     atom                  positions (cryst. coord.)
         1           B   tau(   1) = (  0.6666667  0.3333333  0.0000000  )
         2           N   tau(   2) = (  0.3333333  0.6666667  0.0000000  )

     number of k points=     1  gaussian smearing, width (Ry)=  0.0100
                       cart. coord. in units 2pi/alat
        k(    1) = (   0.0000000   0.0000000   0.0000000), wk =   2.0000000

                       cryst. coord.
        k(    1) = (   0.0000000   0.0000000   0.0000000), wk =   2.0000000

     Dense  grid:    19187 G-vectors     FFT dimensions: (  24,  24, 180)

     Dynamical RAM for                 wfc:       0.01 MB

     Dynamical RAM for     wfc (w. buffer):       0.01 MB

     Dynamical RAM for                 EXX:       2.71 MB

     Dynamical RAM for           str. fact:       0.04 MB

     Dynamical RAM for           local pot:       0.00 MB

     Dynamical RAM for          nlocal pot:       0.04 MB

     Dynamical RAM for                qrad:       0.51 MB

     Dynamical RAM for          rho,v,vnew:       0.21 MB

     Dynamical RAM for               rhoin:       0.07 MB

     Dynamical RAM for            rho*nmix:       0.29 MB

     Dynamical RAM for           G-vectors:       0.08 MB

     Dynamical RAM for          h,s,v(r/c):       0.00 MB

     Dynamical RAM for          <psi|beta>:       0.00 MB

     Dynamical RAM for                 psi:       0.05 MB

     Dynamical RAM for                hpsi:       0.05 MB

     Dynamical RAM for                spsi:       0.05 MB

     Dynamical RAM for      wfcinit/wfcrot:       0.04 MB

     Dynamical RAM for           addusdens:       0.79 MB

     Dynamical RAM for          addusforce:       0.85 MB

     Dynamical RAM for         addusstress:       0.89 MB

     Estimated static dynamical RAM per process >       4.26 MB

     Estimated max dynamical RAM per process >       5.15 MB

     Estimated total dynamical RAM >      82.46 MB

     Check: negative core charge=   -0.000010

     Initial potential from superposition of free atoms

     starting charge    7.99971, renormalised to    8.00000

     negative rho (up, down):  6.472E-04 0.000E+00
     Starting wfcs are    8 randomized atomic wfcs

     total cpu time spent up to now is        1.8 secs

     Self-consistent Calculation

     iteration #  1     ecut=    50.00 Ry     beta= 0.31
     Davidson diagonalization with overlap
     ethr =  1.00E-02,  avg # of iterations =  3.0

     negative rho (up, down):  9.633E-04 0.000E+00

     total cpu time spent up to now is        2.0 secs

     total energy              =     -39.37463978 Ry
     Harris-Foulkes estimate   =     -39.58903373 Ry
     estimated scf accuracy    <       0.56935144 Ry

     iteration #  2     ecut=    50.00 Ry     beta= 0.31
     Davidson diagonalization with overlap
     ethr =  7.12E-03,  avg # of iterations =  2.0

     negative rho (up, down):  1.296E-03 0.000E+00

     total cpu time spent up to now is        2.0 secs

     total energy              =     -39.42123890 Ry
     Harris-Foulkes estimate   =     -39.43869869 Ry
     estimated scf accuracy    <       0.07831058 Ry

     iteration #  3     ecut=    50.00 Ry     beta= 0.31
     Davidson diagonalization with overlap
     ethr =  9.79E-04,  avg # of iterations =  3.0

     negative rho (up, down):  1.589E-03 0.000E+00

     total cpu time spent up to now is        2.1 secs

     total energy              =     -39.42443407 Ry
     Harris-Foulkes estimate   =     -39.43302701 Ry
     estimated scf accuracy    <       0.03130751 Ry

     iteration #  4     ecut=    50.00 Ry     beta= 0.31
     Davidson diagonalization with overlap
     ethr =  3.91E-04,  avg # of iterations =  2.0

     negative rho (up, down):  1.839E-03 0.000E+00

     total cpu time spent up to now is        2.2 secs

     total energy              =     -39.42773113 Ry
     Harris-Foulkes estimate   =     -39.42743256 Ry
     estimated scf accuracy    <       0.00400230 Ry

     iteration #  5     ecut=    50.00 Ry     beta= 0.31
     Davidson diagonalization with overlap
     ethr =  5.00E-05,  avg # of iterations =  3.0

     negative rho (up, down):  1.833E-03 0.000E+00

     total cpu time spent up to now is        2.3 secs

     total energy              =     -39.42803325 Ry
     Harris-Foulkes estimate   =     -39.42835693 Ry
     estimated scf accuracy    <       0.00157474 Ry

     iteration #  6     ecut=    50.00 Ry     beta= 0.31
     Davidson diagonalization with overlap
     ethr =  1.97E-05,  avg # of iterations =  1.0

     negative rho (up, down):  1.841E-03 0.000E+00

     total cpu time spent up to now is        2.4 secs

     total energy              =     -39.42751524 Ry
     Harris-Foulkes estimate   =     -39.42805349 Ry
     estimated scf accuracy    <       0.00102509 Ry

     iteration #  7     ecut=    50.00 Ry     beta= 0.31
     Davidson diagonalization with overlap
     ethr =  1.28E-05,  avg # of iterations =  2.0

     negative rho (up, down):  1.839E-03 0.000E+00

     total cpu time spent up to now is        2.6 secs

     total energy              =     -39.42772165 Ry
     Harris-Foulkes estimate   =     -39.42776231 Ry
     estimated scf accuracy    <       0.00014119 Ry

     iteration #  8     ecut=    50.00 Ry     beta= 0.31
     Davidson diagonalization with overlap
     ethr =  1.76E-06,  avg # of iterations =  3.0

     negative rho (up, down):  1.841E-03 0.000E+00

     total cpu time spent up to now is        2.7 secs

     total energy              =     -39.42770330 Ry
     Harris-Foulkes estimate   =     -39.42772867 Ry
     estimated scf accuracy    <       0.00005410 Ry

     iteration #  9     ecut=    50.00 Ry     beta= 0.31
     Davidson diagonalization with overlap
     ethr =  6.76E-07,  avg # of iterations =  2.0

     negative rho (up, down):  1.841E-03 0.000E+00

     total cpu time spent up to now is        2.8 secs

     total energy              =     -39.42772076 Ry
     Harris-Foulkes estimate   =     -39.42772038 Ry
     estimated scf accuracy    <       0.00000467 Ry

     iteration # 10     ecut=    50.00 Ry     beta= 0.31
     Davidson diagonalization with overlap
     ethr =  5.83E-08,  avg # of iterations =  1.0

     negative rho (up, down):  1.842E-03 0.000E+00

     total cpu time spent up to now is        2.9 secs

     total energy              =     -39.42772093 Ry
     Harris-Foulkes estimate   =     -39.42772100 Ry
     estimated scf accuracy    <       0.00000506 Ry

     iteration # 11     ecut=    50.00 Ry     beta= 0.31
     Davidson diagonalization with overlap
     ethr =  5.83E-08,  avg # of iterations =  1.0

     negative rho (up, down):  1.843E-03 0.000E+00

     total cpu time spent up to now is        3.1 secs

     total energy              =     -39.42771984 Ry
     Harris-Foulkes estimate   =     -39.42772101 Ry
     estimated scf accuracy    <       0.00000528 Ry

     iteration # 12     ecut=    50.00 Ry     beta= 0.31
     Davidson diagonalization with overlap
     ethr =  5.83E-08,  avg # of iterations =  1.0

     negative rho (up, down):  1.843E-03 0.000E+00

     total cpu time spent up to now is        3.2 secs

     total energy              =     -39.42771905 Ry
     Harris-Foulkes estimate   =     -39.42771992 Ry
     estimated scf accuracy    <       0.00000268 Ry

     iteration # 13     ecut=    50.00 Ry     beta= 0.31
     Davidson diagonalization with overlap
     ethr =  3.35E-08,  avg # of iterations =  2.0

     negative rho (up, down):  1.843E-03 0.000E+00

     total cpu time spent up to now is        3.3 secs

     total energy              =     -39.42771928 Ry
     Harris-Foulkes estimate   =     -39.42771934 Ry
     estimated scf accuracy    <       0.00000021 Ry

     iteration # 14     ecut=    50.00 Ry     beta= 0.31
     Davidson diagonalization with overlap
     ethr =  2.69E-09,  avg # of iterations =  1.0

     negative rho (up, down):  1.843E-03 0.000E+00

     total cpu time spent up to now is        3.5 secs

     total energy              =     -39.42771927 Ry
     Harris-Foulkes estimate   =     -39.42771929 Ry
     estimated scf accuracy    <       0.00000006 Ry

     iteration # 15     ecut=    50.00 Ry     beta= 0.31
     Davidson diagonalization with overlap
     ethr =  7.54E-10,  avg # of iterations =  3.0

     negative rho (up, down):  1.843E-03 0.000E+00

     total cpu time spent up to now is        3.7 secs

     End of self-consistent calculation

          k = 0.0000 0.0000 0.0000 (  2463 PWs)   bands (ev):

   -21.5188  -9.4575  -5.6692  -5.6692   0.1521

     occupation numbers 
     1.0000   1.0000   1.0000   1.0000   0.0000

     the Fermi energy is    -2.3526 ev

!    total energy              =     -39.42771928 Ry
     Harris-Foulkes estimate   =     -39.42771929 Ry
     estimated scf accuracy    <          3.1E-09 Ry

     convergence has been achieved in  15 iterations

     Using ACE for calculation of exact exchange

     EXX grid:    19187 G-vectors     FFT dimensions: (  24,  24, 180)

     negative rho (up, down):  1.843E-03 0.000E+00

     EXX: now go back to refine exchange calculation

     total cpu time spent up to now is        4.5 secs

     Self-consistent Calculation

     iteration #  1     ecut=    50.00 Ry     beta= 0.31
     Davidson diagonalization with overlap
     ethr =  7.54E-10,  avg # of iterations =  8.0

     negative rho (up, down):  1.878E-03 0.000E+00

     total cpu time spent up to now is        4.6 secs

     total energy              =     -36.13835390 Ry
     Harris-Foulkes estimate   =     -36.13867018 Ry
     estimated scf accuracy    <       0.00080634 Ry

     iteration #  2     ecut=    50.00 Ry     beta= 0.31
     Davidson diagonalization with overlap
     ethr =  1.01E-05,  avg # of iterations =  4.0

     negative rho (up, down):  1.889E-03 0.000E+00

     total cpu time spent up to now is        4.7 secs

     total energy              =     -35.96665948 Ry
     Harris-Foulkes estimate   =     -35.96704814 Ry
     estimated scf accuracy    <       0.00285762 Ry

     iteration #  3     ecut=    50.00 Ry     beta= 0.31
     Davidson diagonalization with overlap
     ethr =  1.01E-05,  avg # of iterations =  1.0

     negative rho (up, down):  1.982E-03 0.000E+00

     total cpu time spent up to now is        4.9 secs

     total energy              =     -35.96536131 Ry
     Harris-Foulkes estimate   =     -35.96667728 Ry
     estimated scf accuracy    <       0.00196585 Ry

     iteration #  4     ecut=    50.00 Ry     beta= 0.31
     Davidson diagonalization with overlap
     ethr =  1.01E-05,  avg # of iterations =  3.0

     negative rho (up, down):  2.046E-03 0.000E+00

     total cpu time spent up to now is        5.0 secs

     total energy              =     -35.96605239 Ry
     Harris-Foulkes estimate   =     -35.96596123 Ry
     estimated scf accuracy    <       0.00025873 Ry

     iteration #  5     ecut=    50.00 Ry     beta= 0.31
     Davidson diagonalization with overlap
     ethr =  3.23E-06,  avg # of iterations =  2.0

     negative rho (up, down):  2.020E-03 0.000E+00

     total cpu time spent up to now is        5.1 secs

     total energy              =     -35.96574652 Ry
     Harris-Foulkes estimate   =     -35.96608005 Ry
     estimated scf accuracy    <       0.00055225 Ry

     iteration #  6     ecut=    50.00 Ry     beta= 0.31
     Davidson diagonalization with overlap
     ethr =  3.23E-06,  avg # of iterations =  2.0

     negative rho (up, down):  2.023E-03 0.000E+00

     total cpu time spent up to now is        5.3 secs

     total energy              =     -35.96586564 Ry
     Harris-Foulkes estimate   =     -35.96586634 Ry
     estimated scf accuracy    <       0.00000204 Ry

     iteration #  7     ecut=    50.00 Ry     beta= 0.31
     Davidson diagonalization with overlap
     ethr =  2.55E-08,  avg # of iterations =  2.0

     negative rho (up, down):  2.023E-03 0.000E+00

     total cpu time spent up to now is        5.4 secs

     total energy              =     -35.96586656 Ry
     Harris-Foulkes estimate   =     -35.96586679 Ry
     estimated scf accuracy    <       0.00000090 Ry

     iteration #  8     ecut=    50.00 Ry     beta= 0.31
     Davidson diagonalization with overlap
     ethr =  1.13E-08,  avg # of iterations =  1.0

     negative rho (up, down):  2.022E-03 0.000E+00

     total cpu time spent up to now is        5.5 secs

     total energy              =     -35.96586631 Ry
     Harris-Foulkes estimate   =     -35.96586657 Ry
     estimated scf accuracy    <       0.00000050 Ry

     iteration #  9     ecut=    50.00 Ry     beta= 0.31
     Davidson diagonalization with overlap
     ethr =  6.22E-09,  avg # of iterations =  2.0

     negative rho (up, down):  2.023E-03 0.000E+00

     total cpu time spent up to now is        5.7 secs

     End of self-consistent calculation

          k = 0.0000 0.0000 0.0000 (  2463 PWs)   bands (ev):

   -23.5792 -10.5941  -7.3794  -7.3794   0.3578

     occupation numbers 
     1.0000   1.0000   1.0000   1.0000   0.0000

     the Fermi energy is    -5.4904 ev

!    total energy              =     -35.96586639 Ry
     Harris-Foulkes estimate   =     -35.96586639 Ry
     estimated scf accuracy    <          6.3E-09 Ry

     convergence has been achieved in   9 iterations

     Using ACE for calculation of exact exchange

     total energy              =     -35.96617020 Ry
     Harris-Foulkes estimate   =     -35.96617019 Ry
     est. exchange err (dexx)  =       0.00030381 Ry
     - averaged Fock potential =       2.92301051 Ry
     + Fock energy (ACE)       =      -1.46095717 Ry

     EXX: now go back to refine exchange calculation

     total cpu time spent up to now is        5.8 secs

     Self-consistent Calculation

     iteration #  1     ecut=    50.00 Ry     beta= 0.31
     Davidson diagonalization with overlap
     ethr =  6.22E-09,  avg # of iterations =  4.0

     negative rho (up, down):  2.023E-03 0.000E+00

     total cpu time spent up to now is        5.9 secs

     total energy              =     -35.96619841 Ry
     Harris-Foulkes estimate   =     -35.96620270 Ry
     estimated scf accuracy    <       0.00001170 Ry

     iteration #  2     ecut=    50.00 Ry     beta= 0.31
     Davidson diagonalization with overlap
     ethr =  1.46E-07,  avg # of iterations =  1.0

     negative rho (up, down):  2.022E-03 0.000E+00

     total cpu time spent up to now is        6.0 secs

     total energy              =     -35.96619674 Ry
     Harris-Foulkes estimate   =     -35.96619882 Ry
     estimated scf accuracy    <       0.00000362 Ry

     iteration #  3     ecut=    50.00 Ry     beta= 0.31
     Davidson diagonalization with overlap
     ethr =  4.53E-08,  avg # of iterations =  2.0

     negative rho (up, down):  2.023E-03 0.000E+00

     total cpu time spent up to now is        6.1 secs

     total energy              =     -35.96619704 Ry
     Harris-Foulkes estimate   =     -35.96619715 Ry
     estimated scf accuracy    <       0.00000022 Ry

     iteration #  4     ecut=    50.00 Ry     beta= 0.31
     Davidson diagonalization with overlap
     ethr =  2.76E-09,  avg # of iterations =  2.0

     negative rho (up, down):  2.023E-03 0.000E+00

     total cpu time spent up to now is        6.3 secs

     total energy              =     -35.96619709 Ry
     Harris-Foulkes estimate   =     -35.96619712 Ry
     estimated scf accuracy    <       0.00000008 Ry

     iteration #  5     ecut=    50.00 Ry     beta= 0.31
     Davidson diagonalization with overlap
     ethr =  9.54E-10,  avg # of iterations =  1.0

     negative rho (up, down):  2.023E-03 0.000E+00

     total cpu time spent up to now is        6.4 secs

     total energy              =     -35.96619708 Ry
     Harris-Foulkes estimate   =     -35.96619710 Ry
     estimated scf accuracy    <       0.00000003 Ry

     iteration #  6     ecut=    50.00 Ry     beta= 0.31
     Davidson diagonalization with overlap
     ethr =  3.36E-10,  avg # of iterations =  2.0

     negative rho (up, down):  2.022E-03 0.000E+00

     total cpu time spent up to now is        6.6 secs

     End of self-consistent calculation

          k = 0.0000 0.0000 0.0000 (  2463 PWs)   bands (ev):

   -23.5998 -10.6123  -7.4018  -7.4018   0.3608

     occupation numbers 
     1.0000   1.0000   1.0000   1.0000   0.0000

     the Fermi energy is    -5.4933 ev

!    total energy              =     -35.96619709 Ry
     Harris-Foulkes estimate   =     -35.96619709 Ry
     estimated scf accuracy    <          3.5E-09 Ry

     convergence has been achieved in   6 iterations

     Using ACE for calculation of exact exchange

     total energy              =     -35.96620055 Ry
     Harris-Foulkes estimate   =     -35.96620056 Ry
     est. exchange err (dexx)  =       0.00000346 Ry
     - averaged Fock potential =       2.92174935 Ry
     + Fock energy (ACE)       =      -1.46079565 Ry

     EXX: now go back to refine exchange calculation

     total cpu time spent up to now is        6.7 secs

     Self-consistent Calculation

     iteration #  1     ecut=    50.00 Ry     beta= 0.31
     Davidson diagonalization with overlap
     ethr =  3.36E-10,  avg # of iterations =  4.0

     negative rho (up, down):  2.022E-03 0.000E+00

     total cpu time spent up to now is        6.9 secs

     total energy              =     -35.96620121 Ry
     Harris-Foulkes estimate   =     -35.96620127 Ry
     estimated scf accuracy    <       0.00000021 Ry

     iteration #  2     ecut=    50.00 Ry     beta= 0.31
     Davidson diagonalization with overlap
     ethr =  2.59E-09,  avg # of iterations =  1.0

     negative rho (up, down):  2.023E-03 0.000E+00

     total cpu time spent up to now is        7.0 secs

     total energy              =     -35.96620118 Ry
     Harris-Foulkes estimate   =     -35.96620121 Ry
     estimated scf accuracy    <       0.00000007 Ry

     iteration #  3     ecut=    50.00 Ry     beta= 0.31
     Davidson diagonalization with overlap
     ethr =  9.33E-10,  avg # of iterations =  2.0

     negative rho (up, down):  2.023E-03 0.000E+00

     total cpu time spent up to now is        7.2 secs

     End of self-consistent calculation

          k = 0.0000 0.0000 0.0000 (  2463 PWs)   bands (ev):

   -23.6021 -10.6137  -7.4046  -7.4046   0.3603

     occupation numbers 
     1.0000   1.0000   1.0000   1.0000   0.0000

     the Fermi energy is    -5.4943 ev

!    total energy              =     -35.96620119 Ry
     Harris-Foulkes estimate   =     -35.96620119 Ry
     estimated scf accuracy    <          3.2E-09 Ry

     convergence has been achieved in   3 iterations

     Using ACE for calculation of exact exchange

     total energy              =     -35.96620133 Ry
     Harris-Foulkes estimate   =     -35.96620133 Ry
     est. exchange err (dexx)  =       0.00000014 Ry
     - averaged Fock potential =       2.92157335 Ry
     + Fock energy (ACE)       =      -1.46077784 Ry

     EXX: now go back to refine exchange calculation

     total cpu time spent up to now is        7.4 secs

     Self-consistent Calculation

     iteration #  1     ecut=    50.00 Ry     beta= 0.31
     Davidson diagonalization with overlap
     ethr =  9.33E-10,  avg # of iterations =  2.0

     negative rho (up, down):  2.023E-03 0.000E+00

     total cpu time spent up to now is        7.5 secs

     total energy              =     -35.96620136 Ry
     Harris-Foulkes estimate   =     -35.96620137 Ry
     estimated scf accuracy    <       0.00000002 Ry

     iteration #  2     ecut=    50.00 Ry     beta= 0.31
     Davidson diagonalization with overlap
     ethr =  2.94E-10,  avg # of iterations =  1.0

     negative rho (up, down):  2.023E-03 0.000E+00

     total cpu time spent up to now is        7.7 secs

     End of self-consistent calculation

          k = 0.0000 0.0000 0.0000 (  2463 PWs)   bands (ev):

   -23.6021 -10.6136  -7.4046  -7.4046   0.3603

     occupation numbers 
     1.0000   1.0000   1.0000   1.0000   0.0000

     the Fermi energy is    -5.4942 ev

!    total energy              =     -35.96620136 Ry
     Harris-Foulkes estimate   =     -35.96620136 Ry
     estimated scf accuracy    <          5.0E-09 Ry

     convergence has been achieved in   2 iterations

     Using ACE for calculation of exact exchange

     total energy              =     -35.96620137 Ry
     Harris-Foulkes estimate   =     -35.96620138 Ry
     est. exchange err (dexx)  =       0.00000001 Ry
     - averaged Fock potential =       2.92156315 Ry
     + Fock energy (ACE)       =      -1.46078532 Ry

     EXX: now go back to refine exchange calculation

     total cpu time spent up to now is        7.9 secs

     Self-consistent Calculation

     iteration #  1     ecut=    50.00 Ry     beta= 0.31
     Davidson diagonalization with overlap
     ethr =  2.94E-10,  avg # of iterations =  2.0

     Threshold (ethr) on eigenvalues was too large:
     Diagonalizing with lowered threshold

     Davidson diagonalization with overlap
     ethr =  1.33E-11,  avg # of iterations =  1.0

     negative rho (up, down):  2.023E-03 0.000E+00

     total cpu time spent up to now is        8.0 secs

     End of self-consistent calculation

          k = 0.0000 0.0000 0.0000 (  2463 PWs)   bands (ev):

   -23.6023 -10.6137  -7.4049  -7.4049   0.3603

     occupation numbers 
     1.0000   1.0000   1.0000   1.0000   0.0000

     the Fermi energy is    -5.4943 ev

!    total energy              =     -35.96620137 Ry
     Harris-Foulkes estimate   =     -35.96620137 Ry
     estimated scf accuracy    <          9.3E-10 Ry

     convergence has been achieved in   1 iterations

     Using ACE for calculation of exact exchange

!!   total energy              =     -35.96620137 Ry
     Harris-Foulkes estimate   =     -35.96620137 Ry
     est. exchange err (dexx)  =          4.4E-10 Ry
     - averaged Fock potential =       2.92156524 Ry
     + Fock energy (ACE)       =      -1.46077992 Ry

     EXX self-consistency reached

     negative rho (up, down):  2.023E-03 0.000E+00

     Forces acting on atoms (cartesian axes, Ry/au):

     atom    1 type  1   force =     0.00000000    0.00000000    0.00000000
     atom    2 type  2   force =     0.00000000    0.00000000    0.00000000
     The non-local contrib.  to forces
     atom    1 type  1   force =     0.00000000    0.00000000    0.00000000
     atom    2 type  2   force =    -0.00000000   -0.00000000    0.00000000
     The ionic contribution  to forces
     atom    1 type  1   force =    -0.00000145    0.00000084   -0.00000000
     atom    2 type  2   force =     0.00000145   -0.00000084    0.00000000
     The local contribution  to forces
     atom    1 type  1   force =     0.00000146   -0.00000084    0.00000000
     atom    2 type  2   force =    -0.00000168    0.00000097    0.00000000
     The core correction contribution to forces
     atom    1 type  1   force =     0.00000002   -0.00000001    0.00000000
     atom    2 type  2   force =     0.00000001   -0.00000000   -0.00000000
     The Hubbard contrib.    to forces
     atom    1 type  1   force =     0.00000000    0.00000000    0.00000000
     atom    2 type  2   force =     0.00000000    0.00000000    0.00000000
     The SCF correction term to forces
     atom    1 type  1   force =    -0.00000000   -0.00000000   -0.00000000
     atom    2 type  2   force =     0.00000000    0.00000000   -0.00000000

     Total force =     0.000000     Total SCF correction =     0.000000


     Computing stress (Cartesian axis) and pressure


     negative rho (up, down):  2.023E-03 0.000E+00
     Message from routine exx_stress:
     USPP stress not tested
          total   stress  (Ry/bohr**3)                   (kbar)     P=   22.52
   0.00004860  -0.00000000   0.00000000          7.15     -0.00      0.00
  -0.00000000   0.00004860   0.00000000         -0.00      7.15      0.00
   0.00000000   0.00000000   0.00036210          0.00      0.00     53.27

     kinetic stress (kbar)   2038.94     -0.00      0.00
                               -0.00   2038.94      0.00
                                0.00      0.00   1944.46

     local   stress (kbar) -40241.19     -0.00     -0.00
                               -0.00 -40241.19     -0.00
                               -0.00     -0.00  40285.68

     nonloc. stress (kbar)    -30.25     -0.00      0.00
                               -0.00    -30.25      0.00
                                0.00      0.00     -6.78

     hartree stress (kbar)  19295.90      0.00      0.00
                                0.00  19295.90      0.00
                                0.00      0.00 -18864.45

     exc-cor stress (kbar)   -147.79      0.00      0.00
                                0.00   -147.79      0.00
                                0.00      0.00   -155.04

     corecor stress (kbar)   -194.98     -0.00     -0.00
                               -0.00   -194.98     -0.00
                               -0.00     -0.00   -185.08

     ewald   stress (kbar)  19396.66      0.00      0.00
                                0.00  19396.66      0.00
                                0.00      0.00 -22907.65

     hubbard stress (kbar)      0.00      0.00      0.00
                                0.00      0.00      0.00
                                0.00      0.00      0.00

     london  stress (kbar)      0.00      0.00      0.00
                                0.00      0.00      0.00
                                0.00      0.00      0.00

     DFT-D3  stress (kbar)      0.00      0.00      0.00
                                0.00      0.00      0.00
                                0.00      0.00      0.00

     XDM     stress (kbar)      0.00      0.00      0.00
                                0.00      0.00      0.00
                                0.00      0.00      0.00

     dft-nl  stress (kbar)      0.00      0.00      0.00
                                0.00      0.00      0.00
                                0.00      0.00      0.00

     TS-vdW  stress (kbar)      0.00      0.00      0.00
                                0.00      0.00      0.00
                                0.00      0.00      0.00


     EXX     stress (kbar)   -110.14      0.00      0.00
                                0.00   -110.14      0.00
                                0.00      0.00    -57.88



     Writing output data file hBN.save/
 
     init_run     :      0.30s CPU      0.48s WALL (       1 calls)
     electrons    :      3.35s CPU      5.44s WALL (       6 calls)
     forces       :      0.08s CPU      0.08s WALL (       1 calls)
     stress       :      0.16s CPU      0.17s WALL (       1 calls)

     Called by init_run:
     wfcinit      :      0.14s CPU      0.29s WALL (       1 calls)
     wfcinit:atom :      0.00s CPU      0.00s WALL (       1 calls)
     wfcinit:wfcr :      0.14s CPU      0.15s WALL (       1 calls)
     potinit      :      0.09s CPU      0.11s WALL (       1 calls)
     hinit0       :      0.06s CPU      0.07s WALL (       1 calls)

     Called by electrons:
     c_bands      :      0.28s CPU      0.96s WALL (      37 calls)
     sum_band     :      0.10s CPU      0.11s WALL (      37 calls)
     v_of_rho     :      1.22s CPU      1.25s WALL (      38 calls)
     v_h          :      0.01s CPU      0.02s WALL (      38 calls)
     v_xc         :      1.27s CPU      1.30s WALL (      40 calls)
     newd         :      0.06s CPU      0.07s WALL (      37 calls)
     PAW_pot      :      1.76s CPU      1.79s WALL (      38 calls)
     mix_rho      :      0.03s CPU      0.03s WALL (      37 calls)

     Called by c_bands:
     init_us_2    :      0.01s CPU      0.01s WALL (     111 calls)
     regterg      :      0.26s CPU      0.28s WALL (      37 calls)

     Called by sum_band:
     sum_band:bec :      0.00s CPU      0.00s WALL (      37 calls)
     addusdens    :      0.05s CPU      0.05s WALL (      37 calls)

     Called by *egterg:
     h_psi        :      0.26s CPU      0.27s WALL (     118 calls)
     s_psi        :      0.00s CPU      0.00s WALL (     118 calls)
     g_psi        :      0.00s CPU      0.00s WALL (      80 calls)
     rdiaghg      :      0.12s CPU      0.12s WALL (     111 calls)
     regterg:over :      0.01s CPU      0.02s WALL (      80 calls)
     regterg:upda :      0.00s CPU      0.00s WALL (      80 calls)
     regterg:last :      0.00s CPU      0.00s WALL (      42 calls)
     rdiaghg:chol :      0.01s CPU      0.01s WALL (     111 calls)
     rdiaghg:inve :      0.00s CPU      0.00s WALL (     111 calls)
     rdiaghg:para :      0.01s CPU      0.01s WALL (     222 calls)

     Called by h_psi:
     h_psi:pot    :      0.25s CPU      0.27s WALL (     118 calls)
     h_psi:calbec :      0.01s CPU      0.01s WALL (     118 calls)
     vloc_psi     :      0.24s CPU      0.26s WALL (     118 calls)
     add_vuspsi   :      0.00s CPU      0.00s WALL (     118 calls)

     General routines
     calbec       :      0.02s CPU      0.02s WALL (     266 calls)
     fft          :      0.23s CPU      0.24s WALL (     355 calls)
     ffts         :      0.01s CPU      0.01s WALL (      37 calls)
     fftw         :      0.25s CPU      0.27s WALL (     717 calls)
     fftc         :      0.04s CPU      0.04s WALL (     130 calls)
     fftcw        :      0.01s CPU      0.01s WALL (      71 calls)
 
     Parallel routines
     fft_scatt_xy :      0.02s CPU      0.02s WALL (    1310 calls)
     fft_scatt_yz :      0.36s CPU      0.37s WALL (    1310 calls)

     EXX routines
     exx_grid     :      0.00s CPU      0.00s WALL (       1 calls)
     exxinit      :      0.61s CPU      0.61s WALL (       6 calls)
     vexx         :      0.11s CPU      0.11s WALL (       6 calls)
     matcalc      :      0.00s CPU      0.00s WALL (     100 calls)
     aceupdate    :      0.00s CPU      0.00s WALL (       6 calls)
     vexxace      :      0.00s CPU      0.01s WALL (      83 calls)
     aceinit      :      0.11s CPU      0.11s WALL (       6 calls)

     EXX+US  routines
     becxx        :      0.00s CPU      0.00s WALL (       6 calls)
     addusxx      :      0.02s CPU      0.02s WALL (     120 calls)
     newdxx       :      0.02s CPU      0.02s WALL (     120 calls)
     qvan_init    :      0.01s CPU      0.01s WALL (       6 calls)
     nlxx_pot     :      0.00s CPU      0.00s WALL (      30 calls)

     EXX+PAW routines
     PAW_newdxx   :      0.00s CPU      0.00s WALL (     120 calls)

     PAW routines
     PAW_pot      :      1.76s CPU      1.79s WALL (      38 calls)
     PAW_symme    :      0.00s CPU      0.00s WALL (      74 calls)
 
     PWSCF        :      5.70s CPU      9.83s WALL

 
   This run was terminated on:  12: 0:29  14Jan2021            

=------------------------------------------------------------------------------=
   JOB DONE.
=------------------------------------------------------------------------------=
