
     Program PWSCF v.6.4.1 starts on 14Jan2021 at 11:58:22 

     This program is part of the open-source Quantum ESPRESSO suite
     for quantum simulation of materials; please cite
         "P. Giannozzi et al., J. Phys.:Condens. Matter 21 395502 (2009);
         "P. Giannozzi et al., J. Phys.:Condens. Matter 29 465901 (2017);
          URL http://www.quantum-espresso.org", 
     in publications or presentations arising from this work. More details at
     http://www.quantum-espresso.org/quote

     Parallel version (MPI), running on    16 processors

     MPI processes distributed on     1 nodes
     R & G space division:  proc/nbgrp/npool/nimage =      16
     Waiting for input...
     Reading input from standard input
Warning: card &IONS ignored
Warning: card     ION_DYNAMICS="BFGS" ignored
Warning: card / ignored

     Current dimensions of program PWSCF are:
     Max number of different atomic species (ntypx) = 10
     Max number of k-points (npk) =  40000
     Max angular momentum in pseudopotentials (lmaxx) =  3

     IMPORTANT: XC functional enforced from input :
     Exchange-correlation      = HSE ( 1  4 12  4 0 0)
     EXX-fraction              =        0.25
     Using LIBXC version       =    4   3   4
     Any further DFT definition will be discarded
     Please, verify this is what you really want

               file N.pbe-n-kjpaw_psl.1.0.0.UPF: wavefunction(s)  2S renormalized

     gamma-point specific algorithms are used
     Message from routine setup :
     BEWARE: nonlinear core correction is not consistent with hybrid XC

     Subspace diagonalization in iterative solution of the eigenvalue problem:
     one sub-group per band group will be used
     scalapack distributed-memory algorithm (size of sub-group:  2*  2 procs)

     EXX: grid of k+q points same as grid of k-points
 
     Parallelization info
     --------------------
     sticks:   dense  smooth     PW     G-vecs:    dense   smooth      PW
     Min          18      18      4                 2246     2246     268
     Max          20      20      6                 2352     2352     318
     Sum         313     313     85                36977    36977    4719
 


     bravais-lattice index     =            4
     lattice parameter (alat)  =       4.8188  a.u.
     unit-cell volume          =     774.1981 (a.u.)^3
     number of atoms/cell      =            2
     number of atomic types    =            2
     number of electrons       =         8.00
     number of Kohn-Sham states=            5
     kinetic-energy cutoff     =      50.0000  Ry
     charge density cutoff     =     200.0000  Ry
     cutoff for Fock operator  =     200.0000  Ry
     convergence threshold     =      1.0E-08
     mixing beta               =       0.3100
     number of iterations used =            8  plain     mixing
     Exchange-correlation      = HSE ( 1  4 12  4 0 0)
     EXX-fraction              =        0.25
     Using LIBXC version       =    4   3   4

     celldm(1)=   4.818801  celldm(2)=   0.000000  celldm(3)=   7.989220
     celldm(4)=   0.000000  celldm(5)=   0.000000  celldm(6)=   0.000000

     crystal axes: (cart. coord. in units of alat)
               a(1) = (   1.000000   0.000000   0.000000 )  
               a(2) = (  -0.500000   0.866025   0.000000 )  
               a(3) = (   0.000000   0.000000   7.989220 )  

     reciprocal axes: (cart. coord. in units 2 pi/alat)
               b(1) = (  1.000000  0.577350  0.000000 )  
               b(2) = (  0.000000  1.154701  0.000000 )  
               b(3) = (  0.000000  0.000000  0.125169 )  


     PseudoPot. # 1 for B  read from file:
     ./pseudo/B.pbe-n-kjpaw_psl.1.0.0.UPF
     MD5 check sum: 8c825a5969375aca5c2c6ad5945b3059
     Pseudo is Projector augmented-wave + core cor, Zval =  3.0
     Generated using "atomic" code by A. Dal Corso v.6.3
     Shape of augmentation charge: PSQ
     Using radial grid of 1059 points,  4 beta functions with: 
                l(1) =   0
                l(2) =   0
                l(3) =   1
                l(4) =   1
     Q(r) pseudized with 0 coefficients 


     PseudoPot. # 2 for N  read from file:
     ./pseudo/N.pbe-n-kjpaw_psl.1.0.0.UPF
     MD5 check sum: 14c48229446f9f2d411169a3abcbc3fa
     Pseudo is Projector augmented-wave + core cor, Zval =  5.0
     Generated using "atomic" code by A. Dal Corso v.6.3
     Shape of augmentation charge: PSQ
     Using radial grid of 1085 points,  4 beta functions with: 
                l(1) =   0
                l(2) =   0
                l(3) =   1
                l(4) =   1
     Q(r) pseudized with 0 coefficients 


     atomic species   valence    mass     pseudopotential
        B              3.00    10.00000     B ( 1.00)
        N              5.00    14.00000     N ( 1.00)

     12 Sym. Ops. (no inversion) found


                                    s                        frac. trans.

      isym =  1     identity                                     

 cryst.   s( 1) = (     1          0          0      )
                  (     0          1          0      )
                  (     0          0          1      )

 cart.    s( 1) = (  1.0000000  0.0000000  0.0000000 )
                  (  0.0000000  1.0000000  0.0000000 )
                  (  0.0000000  0.0000000  1.0000000 )


      isym =  2     180 deg rotation - cart. axis [0,1,0]        

 cryst.   s( 2) = (    -1          0          0      )
                  (     1          1          0      )
                  (     0          0         -1      )

 cart.    s( 2) = ( -1.0000000  0.0000000  0.0000000 )
                  (  0.0000000  1.0000000  0.0000000 )
                  (  0.0000000  0.0000000 -1.0000000 )


      isym =  3     120 deg rotation - cryst. axis [0,0,1]       

 cryst.   s( 3) = (     0          1          0      )
                  (    -1         -1          0      )
                  (     0          0          1      )

 cart.    s( 3) = ( -0.5000000 -0.8660254  0.0000000 )
                  (  0.8660254 -0.5000000  0.0000000 )
                  (  0.0000000  0.0000000  1.0000000 )


      isym =  4     120 deg rotation - cryst. axis [0,0,-1]      

 cryst.   s( 4) = (    -1         -1          0      )
                  (     1          0          0      )
                  (     0          0          1      )

 cart.    s( 4) = ( -0.5000000  0.8660254  0.0000000 )
                  ( -0.8660254 -0.5000000  0.0000000 )
                  (  0.0000000  0.0000000  1.0000000 )


      isym =  5     180 deg rotation - cryst. axis [1,-1,0]      

 cryst.   s( 5) = (     0         -1          0      )
                  (    -1          0          0      )
                  (     0          0         -1      )

 cart.    s( 5) = (  0.5000000 -0.8660254  0.0000000 )
                  ( -0.8660254 -0.5000000  0.0000000 )
                  (  0.0000000  0.0000000 -1.0000000 )


      isym =  6     180 deg rotation - cryst. axis [2,1,0]       

 cryst.   s( 6) = (     1          1          0      )
                  (     0         -1          0      )
                  (     0          0         -1      )

 cart.    s( 6) = (  0.5000000  0.8660254  0.0000000 )
                  (  0.8660254 -0.5000000  0.0000000 )
                  (  0.0000000  0.0000000 -1.0000000 )


      isym =  7     inv. 180 deg rotation - cart. axis [0,0,1]   

 cryst.   s( 7) = (     1          0          0      )
                  (     0          1          0      )
                  (     0          0         -1      )

 cart.    s( 7) = (  1.0000000  0.0000000  0.0000000 )
                  (  0.0000000  1.0000000  0.0000000 )
                  (  0.0000000  0.0000000 -1.0000000 )


      isym =  8     inv. 180 deg rotation - cart. axis [1,0,0]   

 cryst.   s( 8) = (    -1          0          0      )
                  (     1          1          0      )
                  (     0          0          1      )

 cart.    s( 8) = ( -1.0000000  0.0000000  0.0000000 )
                  (  0.0000000  1.0000000  0.0000000 )
                  (  0.0000000  0.0000000  1.0000000 )


      isym =  9     inv.  60 deg rotation - cryst. axis [0,0,1]  

 cryst.   s( 9) = (    -1         -1          0      )
                  (     1          0          0      )
                  (     0          0         -1      )

 cart.    s( 9) = ( -0.5000000  0.8660254  0.0000000 )
                  ( -0.8660254 -0.5000000  0.0000000 )
                  (  0.0000000  0.0000000 -1.0000000 )


      isym = 10     inv.  60 deg rotation - cryst. axis [0,0,-1] 

 cryst.   s(10) = (     0          1          0      )
                  (    -1         -1          0      )
                  (     0          0         -1      )

 cart.    s(10) = ( -0.5000000 -0.8660254  0.0000000 )
                  (  0.8660254 -0.5000000  0.0000000 )
                  (  0.0000000  0.0000000 -1.0000000 )


      isym = 11     inv. 180 deg rotation - cryst. axis [0,1,0]  

 cryst.   s(11) = (     1          1          0      )
                  (     0         -1          0      )
                  (     0          0          1      )

 cart.    s(11) = (  0.5000000  0.8660254  0.0000000 )
                  (  0.8660254 -0.5000000  0.0000000 )
                  (  0.0000000  0.0000000  1.0000000 )


      isym = 12     inv. 180 deg rotation - cryst. axis [1,1,0]  

 cryst.   s(12) = (     0         -1          0      )
                  (    -1          0          0      )
                  (     0          0          1      )

 cart.    s(12) = (  0.5000000 -0.8660254  0.0000000 )
                  ( -0.8660254 -0.5000000  0.0000000 )
                  (  0.0000000  0.0000000  1.0000000 )


     point group D_3h (-62m)
     there are  6 classes
     the character table:

       E     2C3   3C2   s_h   2S3   3s_v 
A'_1   1.00  1.00  1.00  1.00  1.00  1.00
A'_2   1.00  1.00 -1.00  1.00  1.00 -1.00
E'     2.00 -1.00  0.00  2.00 -1.00  0.00
A''1   1.00  1.00  1.00 -1.00 -1.00 -1.00
A''2   1.00  1.00 -1.00 -1.00 -1.00  1.00
E''    2.00 -1.00  0.00 -2.00  1.00  0.00

     the symmetry operations in each class and the name of the first element:

     E        1
          identity                                               
     2C3      3    4
          120 deg rotation - cryst. axis [0,0,1]                 
     3C2      2    6    5
          180 deg rotation - cart. axis [0,1,0]                  
     s_h      7
          inv. 180 deg rotation - cart. axis [0,0,1]             
     2S3      9   10
          inv.  60 deg rotation - cryst. axis [0,0,1]            
     3s_v     8   11   12
          inv. 180 deg rotation - cart. axis [1,0,0]             

   Cartesian axes

     site n.     atom                  positions (alat units)
         1           B   tau(   1) = (   0.5000000   0.2886751   0.0000000  )
         2           N   tau(   2) = (  -0.0000000   0.5773503   0.0000000  )

   Crystallographic axes

     site n.     atom                  positions (cryst. coord.)
         1           B   tau(   1) = (  0.6666667  0.3333333  0.0000000  )
         2           N   tau(   2) = (  0.3333333  0.6666667  0.0000000  )

     number of k points=     1  gaussian smearing, width (Ry)=  0.0100
                       cart. coord. in units 2pi/alat
        k(    1) = (   0.0000000   0.0000000   0.0000000), wk =   2.0000000

                       cryst. coord.
        k(    1) = (   0.0000000   0.0000000   0.0000000), wk =   2.0000000

     Dense  grid:    18489 G-vectors     FFT dimensions: (  24,  24, 180)

     Dynamical RAM for                 wfc:       0.01 MB

     Dynamical RAM for     wfc (w. buffer):       0.01 MB

     Dynamical RAM for                 EXX:       2.59 MB

     Dynamical RAM for           str. fact:       0.03 MB

     Dynamical RAM for           local pot:       0.00 MB

     Dynamical RAM for          nlocal pot:       0.04 MB

     Dynamical RAM for                qrad:       0.50 MB

     Dynamical RAM for          rho,v,vnew:       0.21 MB

     Dynamical RAM for               rhoin:       0.07 MB

     Dynamical RAM for            rho*nmix:       0.27 MB

     Dynamical RAM for           G-vectors:       0.07 MB

     Dynamical RAM for          h,s,v(r/c):       0.00 MB

     Dynamical RAM for          <psi|beta>:       0.00 MB

     Dynamical RAM for                 psi:       0.04 MB

     Dynamical RAM for                hpsi:       0.04 MB

     Dynamical RAM for                spsi:       0.04 MB

     Dynamical RAM for      wfcinit/wfcrot:       0.04 MB

     Dynamical RAM for           addusdens:       0.76 MB

     Dynamical RAM for          addusforce:       0.82 MB

     Dynamical RAM for         addusstress:       0.86 MB

     Estimated static dynamical RAM per process >       4.11 MB

     Estimated max dynamical RAM per process >       4.96 MB

     Estimated total dynamical RAM >      79.43 MB

     Check: negative core charge=   -0.000010

     Initial potential from superposition of free atoms

     starting charge    7.99971, renormalised to    8.00000

     negative rho (up, down):  6.073E-04 0.000E+00
     Starting wfcs are    8 randomized atomic wfcs

     total cpu time spent up to now is        1.9 secs

     Self-consistent Calculation

     iteration #  1     ecut=    50.00 Ry     beta= 0.31
     Davidson diagonalization with overlap
     ethr =  1.00E-02,  avg # of iterations =  4.0

     negative rho (up, down):  9.064E-04 0.000E+00

     total cpu time spent up to now is        2.3 secs

     total energy              =     -39.37860911 Ry
     Harris-Foulkes estimate   =     -39.60093399 Ry
     estimated scf accuracy    <       0.59053810 Ry

     iteration #  2     ecut=    50.00 Ry     beta= 0.31
     Davidson diagonalization with overlap
     ethr =  7.38E-03,  avg # of iterations =  2.0

     negative rho (up, down):  1.231E-03 0.000E+00

     total cpu time spent up to now is        2.4 secs

     total energy              =     -39.42036749 Ry
     Harris-Foulkes estimate   =     -39.44204334 Ry
     estimated scf accuracy    <       0.08626309 Ry

     iteration #  3     ecut=    50.00 Ry     beta= 0.31
     Davidson diagonalization with overlap
     ethr =  1.08E-03,  avg # of iterations =  2.0

     negative rho (up, down):  1.516E-03 0.000E+00

     total cpu time spent up to now is        2.5 secs

     total energy              =     -39.42368556 Ry
     Harris-Foulkes estimate   =     -39.43276815 Ry
     estimated scf accuracy    <       0.03138234 Ry

     iteration #  4     ecut=    50.00 Ry     beta= 0.31
     Davidson diagonalization with overlap
     ethr =  3.92E-04,  avg # of iterations =  2.0

     negative rho (up, down):  1.721E-03 0.000E+00

     total cpu time spent up to now is        2.6 secs

     total energy              =     -39.42723715 Ry
     Harris-Foulkes estimate   =     -39.42699406 Ry
     estimated scf accuracy    <       0.00352857 Ry

     iteration #  5     ecut=    50.00 Ry     beta= 0.31
     Davidson diagonalization with overlap
     ethr =  4.41E-05,  avg # of iterations =  4.0

     negative rho (up, down):  1.716E-03 0.000E+00

     total cpu time spent up to now is        2.7 secs

     total energy              =     -39.42738108 Ry
     Harris-Foulkes estimate   =     -39.42779758 Ry
     estimated scf accuracy    <       0.00154709 Ry

     iteration #  6     ecut=    50.00 Ry     beta= 0.31
     Davidson diagonalization with overlap
     ethr =  1.93E-05,  avg # of iterations =  1.0

     negative rho (up, down):  1.730E-03 0.000E+00

     total cpu time spent up to now is        2.8 secs

     total energy              =     -39.42702950 Ry
     Harris-Foulkes estimate   =     -39.42740649 Ry
     estimated scf accuracy    <       0.00076855 Ry

     iteration #  7     ecut=    50.00 Ry     beta= 0.31
     Davidson diagonalization with overlap
     ethr =  9.61E-06,  avg # of iterations =  3.0

     negative rho (up, down):  1.730E-03 0.000E+00

     total cpu time spent up to now is        2.9 secs

     total energy              =     -39.42718911 Ry
     Harris-Foulkes estimate   =     -39.42721458 Ry
     estimated scf accuracy    <       0.00008033 Ry

     iteration #  8     ecut=    50.00 Ry     beta= 0.31
     Davidson diagonalization with overlap
     ethr =  1.00E-06,  avg # of iterations =  1.0

     negative rho (up, down):  1.731E-03 0.000E+00

     total cpu time spent up to now is        3.0 secs

     total energy              =     -39.42718134 Ry
     Harris-Foulkes estimate   =     -39.42719405 Ry
     estimated scf accuracy    <       0.00002661 Ry

     iteration #  9     ecut=    50.00 Ry     beta= 0.31
     Davidson diagonalization with overlap
     ethr =  3.33E-07,  avg # of iterations =  2.0

     negative rho (up, down):  1.731E-03 0.000E+00

     total cpu time spent up to now is        3.2 secs

     total energy              =     -39.42719123 Ry
     Harris-Foulkes estimate   =     -39.42719114 Ry
     estimated scf accuracy    <       0.00000408 Ry

     iteration # 10     ecut=    50.00 Ry     beta= 0.31
     Davidson diagonalization with overlap
     ethr =  5.09E-08,  avg # of iterations =  1.0

     negative rho (up, down):  1.732E-03 0.000E+00

     total cpu time spent up to now is        3.3 secs

     total energy              =     -39.42719097 Ry
     Harris-Foulkes estimate   =     -39.42719150 Ry
     estimated scf accuracy    <       0.00000429 Ry

     iteration # 11     ecut=    50.00 Ry     beta= 0.31
     Davidson diagonalization with overlap
     ethr =  5.09E-08,  avg # of iterations =  1.0

     negative rho (up, down):  1.733E-03 0.000E+00

     total cpu time spent up to now is        3.3 secs

     total energy              =     -39.42718989 Ry
     Harris-Foulkes estimate   =     -39.42719099 Ry
     estimated scf accuracy    <       0.00000329 Ry

     iteration # 12     ecut=    50.00 Ry     beta= 0.31
     Davidson diagonalization with overlap
     ethr =  4.11E-08,  avg # of iterations =  1.0

     negative rho (up, down):  1.733E-03 0.000E+00

     total cpu time spent up to now is        3.5 secs

     total energy              =     -39.42719006 Ry
     Harris-Foulkes estimate   =     -39.42719012 Ry
     estimated scf accuracy    <       0.00000053 Ry

     iteration # 13     ecut=    50.00 Ry     beta= 0.31
     Davidson diagonalization with overlap
     ethr =  6.58E-09,  avg # of iterations =  2.0

     negative rho (up, down):  1.733E-03 0.000E+00

     total cpu time spent up to now is        3.6 secs

     total energy              =     -39.42719002 Ry
     Harris-Foulkes estimate   =     -39.42719010 Ry
     estimated scf accuracy    <       0.00000027 Ry

     iteration # 14     ecut=    50.00 Ry     beta= 0.31
     Davidson diagonalization with overlap
     ethr =  3.42E-09,  avg # of iterations =  2.0

     negative rho (up, down):  1.733E-03 0.000E+00

     total cpu time spent up to now is        3.7 secs

     total energy              =     -39.42719002 Ry
     Harris-Foulkes estimate   =     -39.42719004 Ry
     estimated scf accuracy    <       0.00000005 Ry

     iteration # 15     ecut=    50.00 Ry     beta= 0.31
     Davidson diagonalization with overlap
     ethr =  6.54E-10,  avg # of iterations =  2.0

     negative rho (up, down):  1.733E-03 0.000E+00

     total cpu time spent up to now is        3.8 secs

     End of self-consistent calculation

          k = 0.0000 0.0000 0.0000 (  2360 PWs)   bands (ev):

   -21.6846  -9.5777  -5.5099  -5.5099   0.2389

     occupation numbers 
     1.0000   1.0000   1.0000   1.0000   0.0000

     the Fermi energy is    -2.2975 ev

!    total energy              =     -39.42719003 Ry
     Harris-Foulkes estimate   =     -39.42719004 Ry
     estimated scf accuracy    <          3.6E-09 Ry

     convergence has been achieved in  15 iterations

     Using ACE for calculation of exact exchange

     EXX grid:    18489 G-vectors     FFT dimensions: (  24,  24, 180)

     negative rho (up, down):  1.733E-03 0.000E+00

     EXX: now go back to refine exchange calculation

     total cpu time spent up to now is        5.0 secs

     Self-consistent Calculation

     iteration #  1     ecut=    50.00 Ry     beta= 0.31
     Davidson diagonalization with overlap
     ethr =  6.54E-10,  avg # of iterations =  8.0

     negative rho (up, down):  1.767E-03 0.000E+00

     total cpu time spent up to now is        5.1 secs

     total energy              =     -36.14163965 Ry
     Harris-Foulkes estimate   =     -36.14193664 Ry
     estimated scf accuracy    <       0.00076145 Ry

     iteration #  2     ecut=    50.00 Ry     beta= 0.31
     Davidson diagonalization with overlap
     ethr =  9.52E-06,  avg # of iterations =  4.0

     negative rho (up, down):  1.777E-03 0.000E+00

     total cpu time spent up to now is        5.3 secs

     total energy              =     -35.96615437 Ry
     Harris-Foulkes estimate   =     -35.96652341 Ry
     estimated scf accuracy    <       0.00271565 Ry

     iteration #  3     ecut=    50.00 Ry     beta= 0.31
     Davidson diagonalization with overlap
     ethr =  9.52E-06,  avg # of iterations =  1.0

     negative rho (up, down):  1.855E-03 0.000E+00

     total cpu time spent up to now is        5.4 secs

     total energy              =     -35.96491508 Ry
     Harris-Foulkes estimate   =     -35.96617079 Ry
     estimated scf accuracy    <       0.00187833 Ry

     iteration #  4     ecut=    50.00 Ry     beta= 0.31
     Davidson diagonalization with overlap
     ethr =  9.52E-06,  avg # of iterations =  3.0

     negative rho (up, down):  1.910E-03 0.000E+00

     total cpu time spent up to now is        5.5 secs

     total energy              =     -35.96555357 Ry
     Harris-Foulkes estimate   =     -35.96547070 Ry
     estimated scf accuracy    <       0.00022086 Ry

     iteration #  5     ecut=    50.00 Ry     beta= 0.31
     Davidson diagonalization with overlap
     ethr =  2.76E-06,  avg # of iterations =  2.0

     negative rho (up, down):  1.889E-03 0.000E+00

     total cpu time spent up to now is        5.6 secs

     total energy              =     -35.96528206 Ry
     Harris-Foulkes estimate   =     -35.96557939 Ry
     estimated scf accuracy    <       0.00048598 Ry

     iteration #  6     ecut=    50.00 Ry     beta= 0.31
     Davidson diagonalization with overlap
     ethr =  2.76E-06,  avg # of iterations =  2.0

     negative rho (up, down):  1.891E-03 0.000E+00

     total cpu time spent up to now is        5.8 secs

     total energy              =     -35.96538720 Ry
     Harris-Foulkes estimate   =     -35.96538783 Ry
     estimated scf accuracy    <       0.00000178 Ry

     iteration #  7     ecut=    50.00 Ry     beta= 0.31
     Davidson diagonalization with overlap
     ethr =  2.23E-08,  avg # of iterations =  2.0

     negative rho (up, down):  1.891E-03 0.000E+00

     total cpu time spent up to now is        5.9 secs

     total energy              =     -35.96538800 Ry
     Harris-Foulkes estimate   =     -35.96538820 Ry
     estimated scf accuracy    <       0.00000077 Ry

     iteration #  8     ecut=    50.00 Ry     beta= 0.31
     Davidson diagonalization with overlap
     ethr =  9.59E-09,  avg # of iterations =  1.0

     negative rho (up, down):  1.891E-03 0.000E+00

     total cpu time spent up to now is        6.0 secs

     total energy              =     -35.96538779 Ry
     Harris-Foulkes estimate   =     -35.96538801 Ry
     estimated scf accuracy    <       0.00000042 Ry

     iteration #  9     ecut=    50.00 Ry     beta= 0.31
     Davidson diagonalization with overlap
     ethr =  5.25E-09,  avg # of iterations =  2.0

     negative rho (up, down):  1.892E-03 0.000E+00

     total cpu time spent up to now is        6.1 secs

     End of self-consistent calculation

          k = 0.0000 0.0000 0.0000 (  2360 PWs)   bands (ev):

   -23.7604 -10.7254  -7.2359  -7.2359   0.4344

     occupation numbers 
     1.0000   1.0000   1.0000   1.0000   0.0000

     the Fermi energy is    -5.4782 ev

!    total energy              =     -35.96538786 Ry
     Harris-Foulkes estimate   =     -35.96538785 Ry
     estimated scf accuracy    <          5.8E-09 Ry

     convergence has been achieved in   9 iterations

     Using ACE for calculation of exact exchange

     total energy              =     -35.96567966 Ry
     Harris-Foulkes estimate   =     -35.96567965 Ry
     est. exchange err (dexx)  =       0.00029180 Ry
     - averaged Fock potential =       2.95500359 Ry
     + Fock energy (ACE)       =      -1.47695935 Ry

     EXX: now go back to refine exchange calculation

     total cpu time spent up to now is        6.2 secs

     Self-consistent Calculation

     iteration #  1     ecut=    50.00 Ry     beta= 0.31
     Davidson diagonalization with overlap
     ethr =  5.25E-09,  avg # of iterations =  4.0

     negative rho (up, down):  1.891E-03 0.000E+00

     total cpu time spent up to now is        6.3 secs

     total energy              =     -35.96570635 Ry
     Harris-Foulkes estimate   =     -35.96571043 Ry
     estimated scf accuracy    <       0.00001104 Ry

     iteration #  2     ecut=    50.00 Ry     beta= 0.31
     Davidson diagonalization with overlap
     ethr =  1.38E-07,  avg # of iterations =  1.0

     negative rho (up, down):  1.891E-03 0.000E+00

     total cpu time spent up to now is        6.5 secs

     total energy              =     -35.96570481 Ry
     Harris-Foulkes estimate   =     -35.96570675 Ry
     estimated scf accuracy    <       0.00000337 Ry

     iteration #  3     ecut=    50.00 Ry     beta= 0.31
     Davidson diagonalization with overlap
     ethr =  4.22E-08,  avg # of iterations =  2.0

     negative rho (up, down):  1.892E-03 0.000E+00

     total cpu time spent up to now is        6.6 secs

     total energy              =     -35.96570509 Ry
     Harris-Foulkes estimate   =     -35.96570520 Ry
     estimated scf accuracy    <       0.00000021 Ry

     iteration #  4     ecut=    50.00 Ry     beta= 0.31
     Davidson diagonalization with overlap
     ethr =  2.65E-09,  avg # of iterations =  2.0

     negative rho (up, down):  1.892E-03 0.000E+00

     total cpu time spent up to now is        6.7 secs

     total energy              =     -35.96570513 Ry
     Harris-Foulkes estimate   =     -35.96570515 Ry
     estimated scf accuracy    <       0.00000007 Ry

     iteration #  5     ecut=    50.00 Ry     beta= 0.31
     Davidson diagonalization with overlap
     ethr =  8.38E-10,  avg # of iterations =  1.0

     negative rho (up, down):  1.892E-03 0.000E+00

     total cpu time spent up to now is        6.9 secs

     total energy              =     -35.96570512 Ry
     Harris-Foulkes estimate   =     -35.96570513 Ry
     estimated scf accuracy    <       0.00000002 Ry

     iteration #  6     ecut=    50.00 Ry     beta= 0.31
     Davidson diagonalization with overlap
     ethr =  2.42E-10,  avg # of iterations =  2.0

     negative rho (up, down):  1.892E-03 0.000E+00

     total cpu time spent up to now is        7.0 secs

     End of self-consistent calculation

          k = 0.0000 0.0000 0.0000 (  2360 PWs)   bands (ev):

   -23.7804 -10.7441  -7.2577  -7.2577   0.4384

     occupation numbers 
     1.0000   1.0000   1.0000   1.0000   0.0000

     the Fermi energy is    -5.4803 ev

!    total energy              =     -35.96570513 Ry
     Harris-Foulkes estimate   =     -35.96570513 Ry
     estimated scf accuracy    <          1.5E-09 Ry

     convergence has been achieved in   6 iterations

     Using ACE for calculation of exact exchange

     total energy              =     -35.96570834 Ry
     Harris-Foulkes estimate   =     -35.96570834 Ry
     est. exchange err (dexx)  =       0.00000321 Ry
     - averaged Fock potential =       2.95374447 Ry
     + Fock energy (ACE)       =      -1.47678833 Ry

     EXX: now go back to refine exchange calculation

     total cpu time spent up to now is        7.1 secs

     Self-consistent Calculation

     iteration #  1     ecut=    50.00 Ry     beta= 0.31
     Davidson diagonalization with overlap
     ethr =  2.42E-10,  avg # of iterations =  4.0

     negative rho (up, down):  1.892E-03 0.000E+00

     total cpu time spent up to now is        7.3 secs

     total energy              =     -35.96570894 Ry
     Harris-Foulkes estimate   =     -35.96570900 Ry
     estimated scf accuracy    <       0.00000019 Ry

     iteration #  2     ecut=    50.00 Ry     beta= 0.31
     Davidson diagonalization with overlap
     ethr =  2.39E-09,  avg # of iterations =  1.0

     negative rho (up, down):  1.892E-03 0.000E+00

     total cpu time spent up to now is        7.4 secs

     total energy              =     -35.96570891 Ry
     Harris-Foulkes estimate   =     -35.96570895 Ry
     estimated scf accuracy    <       0.00000007 Ry

     iteration #  3     ecut=    50.00 Ry     beta= 0.31
     Davidson diagonalization with overlap
     ethr =  8.51E-10,  avg # of iterations =  2.0

     negative rho (up, down):  1.892E-03 0.000E+00

     total cpu time spent up to now is        7.5 secs

     End of self-consistent calculation

          k = 0.0000 0.0000 0.0000 (  2360 PWs)   bands (ev):

   -23.7826 -10.7455  -7.2603  -7.2603   0.4379

     occupation numbers 
     1.0000   1.0000   1.0000   1.0000   0.0000

     the Fermi energy is    -5.4812 ev

!    total energy              =     -35.96570892 Ry
     Harris-Foulkes estimate   =     -35.96570892 Ry
     estimated scf accuracy    <          3.1E-09 Ry

     convergence has been achieved in   3 iterations

     Using ACE for calculation of exact exchange

     total energy              =     -35.96570905 Ry
     Harris-Foulkes estimate   =     -35.96570905 Ry
     est. exchange err (dexx)  =       0.00000013 Ry
     - averaged Fock potential =       2.95355987 Ry
     + Fock energy (ACE)       =      -1.47677167 Ry

     EXX: now go back to refine exchange calculation

     total cpu time spent up to now is        7.6 secs

     Self-consistent Calculation

     iteration #  1     ecut=    50.00 Ry     beta= 0.31
     Davidson diagonalization with overlap
     ethr =  8.51E-10,  avg # of iterations =  2.0

     negative rho (up, down):  1.892E-03 0.000E+00

     total cpu time spent up to now is        7.7 secs

     total energy              =     -35.96570908 Ry
     Harris-Foulkes estimate   =     -35.96570909 Ry
     estimated scf accuracy    <       0.00000002 Ry

     iteration #  2     ecut=    50.00 Ry     beta= 0.31
     Davidson diagonalization with overlap
     ethr =  2.68E-10,  avg # of iterations =  1.0

     negative rho (up, down):  1.892E-03 0.000E+00

     total cpu time spent up to now is        7.9 secs

     End of self-consistent calculation

          k = 0.0000 0.0000 0.0000 (  2360 PWs)   bands (ev):

   -23.7826 -10.7453  -7.2604  -7.2604   0.4379

     occupation numbers 
     1.0000   1.0000   1.0000   1.0000   0.0000

     the Fermi energy is    -5.4811 ev

!    total energy              =     -35.96570908 Ry
     Harris-Foulkes estimate   =     -35.96570908 Ry
     estimated scf accuracy    <          4.6E-09 Ry

     convergence has been achieved in   2 iterations

     Using ACE for calculation of exact exchange

     total energy              =     -35.96570909 Ry
     Harris-Foulkes estimate   =     -35.96570909 Ry
     est. exchange err (dexx)  =       0.00000001 Ry
     - averaged Fock potential =       2.95355080 Ry
     + Fock energy (ACE)       =      -1.47677914 Ry

     EXX: now go back to refine exchange calculation

     total cpu time spent up to now is        8.1 secs

     Self-consistent Calculation

     iteration #  1     ecut=    50.00 Ry     beta= 0.31
     Davidson diagonalization with overlap
     ethr =  2.68E-10,  avg # of iterations =  2.0

     Threshold (ethr) on eigenvalues was too large:
     Diagonalizing with lowered threshold

     Davidson diagonalization with overlap
     ethr =  1.14E-11,  avg # of iterations =  1.0

     negative rho (up, down):  1.892E-03 0.000E+00

     total cpu time spent up to now is        8.2 secs

     End of self-consistent calculation

          k = 0.0000 0.0000 0.0000 (  2360 PWs)   bands (ev):

   -23.7828 -10.7455  -7.2606  -7.2606   0.4379

     occupation numbers 
     1.0000   1.0000   1.0000   1.0000   0.0000

     the Fermi energy is    -5.4812 ev

!    total energy              =     -35.96570909 Ry
     Harris-Foulkes estimate   =     -35.96570909 Ry
     estimated scf accuracy    <          8.0E-10 Ry

     convergence has been achieved in   1 iterations

     Using ACE for calculation of exact exchange

!!   total energy              =     -35.96570909 Ry
     Harris-Foulkes estimate   =     -35.96570909 Ry
     est. exchange err (dexx)  =          3.6E-10 Ry
     - averaged Fock potential =       2.95355323 Ry
     + Fock energy (ACE)       =      -1.47677409 Ry

     EXX self-consistency reached

     negative rho (up, down):  1.892E-03 0.000E+00

     Forces acting on atoms (cartesian axes, Ry/au):

     atom    1 type  1   force =     0.00000000    0.00000000    0.00000000
     atom    2 type  2   force =    -0.00000000   -0.00000000    0.00000000
     The non-local contrib.  to forces
     atom    1 type  1   force =     0.00000000    0.00000000    0.00000000
     atom    2 type  2   force =     0.00000000    0.00000000    0.00000000
     The ionic contribution  to forces
     atom    1 type  1   force =    -0.00000150    0.00000086   -0.00000000
     atom    2 type  2   force =     0.00000150   -0.00000086    0.00000000
     The local contribution  to forces
     atom    1 type  1   force =     0.00000148   -0.00000085    0.00000001
     atom    2 type  2   force =    -0.00000173    0.00000100    0.00000002
     The core correction contribution to forces
     atom    1 type  1   force =     0.00000002   -0.00000001    0.00000000
     atom    2 type  2   force =     0.00000001   -0.00000000   -0.00000000
     The Hubbard contrib.    to forces
     atom    1 type  1   force =     0.00000000    0.00000000    0.00000000
     atom    2 type  2   force =     0.00000000    0.00000000    0.00000000
     The SCF correction term to forces
     atom    1 type  1   force =    -0.00000000    0.00000000   -0.00000001
     atom    2 type  2   force =     0.00000000   -0.00000000   -0.00000002

     Total force =     0.000000     Total SCF correction =     0.000000


     Computing stress (Cartesian axis) and pressure


     negative rho (up, down):  1.892E-03 0.000E+00
     Message from routine exx_stress:
     USPP stress not tested
          total   stress  (Ry/bohr**3)                   (kbar)     P=   44.18
   0.00025120  -0.00000000   0.00000000         36.95     -0.00      0.00
  -0.00000000   0.00025120  -0.00000000         -0.00     36.95     -0.00
   0.00000000   0.00000000   0.00039857          0.00      0.00     58.63

     kinetic stress (kbar)   2166.90     -0.00      0.00
                                0.00   2166.90      0.00
                                0.00      0.00   2054.63

     local   stress (kbar) -42754.77     -0.00      0.00
                               -0.00 -42754.77     -0.00
                                0.00     -0.00  42861.93

     nonloc. stress (kbar)    -32.75      0.00      0.00
                                0.00    -32.75     -0.00
                                0.00     -0.00     -8.15

     hartree stress (kbar)  20494.00      0.00     -0.00
                                0.00  20494.00      0.00
                               -0.00      0.00 -20051.66

     exc-cor stress (kbar)   -157.39      0.00     -0.00
                                0.00   -157.39      0.00
                               -0.00      0.00   -165.11

     corecor stress (kbar)   -205.01     -0.00      0.00
                               -0.00   -205.01     -0.00
                                0.00     -0.00   -194.19

     ewald   stress (kbar)  20642.64      0.00     -0.00
                                0.00  20642.64     -0.00
                               -0.00     -0.00 -24379.17

     hubbard stress (kbar)      0.00      0.00      0.00
                                0.00      0.00      0.00
                                0.00      0.00      0.00

     london  stress (kbar)      0.00      0.00      0.00
                                0.00      0.00      0.00
                                0.00      0.00      0.00

     DFT-D3  stress (kbar)      0.00      0.00      0.00
                                0.00      0.00      0.00
                                0.00      0.00      0.00

     XDM     stress (kbar)      0.00      0.00      0.00
                                0.00      0.00      0.00
                                0.00      0.00      0.00

     dft-nl  stress (kbar)      0.00      0.00      0.00
                                0.00      0.00      0.00
                                0.00      0.00      0.00

     TS-vdW  stress (kbar)      0.00      0.00      0.00
                                0.00      0.00      0.00
                                0.00      0.00      0.00


     EXX     stress (kbar)   -116.66     -0.00      0.00
                               -0.00   -116.66      0.00
                               -0.00     -0.00    -59.64



     Writing output data file hBN.save/
 
     init_run     :      0.28s CPU      0.48s WALL (       1 calls)
     electrons    :      3.42s CPU      5.31s WALL (       6 calls)
     forces       :      0.08s CPU      0.08s WALL (       1 calls)
     stress       :      0.16s CPU      0.17s WALL (       1 calls)

     Called by init_run:
     wfcinit      :      0.10s CPU      0.23s WALL (       1 calls)
     wfcinit:atom :      0.00s CPU      0.00s WALL (       1 calls)
     wfcinit:wfcr :      0.10s CPU      0.12s WALL (       1 calls)
     potinit      :      0.11s CPU      0.17s WALL (       1 calls)
     hinit0       :      0.06s CPU      0.07s WALL (       1 calls)

     Called by electrons:
     c_bands      :      0.26s CPU      0.85s WALL (      37 calls)
     sum_band     :      0.10s CPU      0.10s WALL (      37 calls)
     v_of_rho     :      1.19s CPU      1.23s WALL (      38 calls)
     v_h          :      0.01s CPU      0.01s WALL (      38 calls)
     v_xc         :      1.25s CPU      1.28s WALL (      40 calls)
     newd         :      0.06s CPU      0.07s WALL (      37 calls)
     PAW_pot      :      1.70s CPU      1.74s WALL (      38 calls)
     mix_rho      :      0.03s CPU      0.03s WALL (      37 calls)

     Called by c_bands:
     init_us_2    :      0.01s CPU      0.01s WALL (     111 calls)
     regterg      :      0.25s CPU      0.27s WALL (      37 calls)

     Called by sum_band:
     sum_band:bec :      0.00s CPU      0.00s WALL (      37 calls)
     addusdens    :      0.05s CPU      0.05s WALL (      37 calls)

     Called by *egterg:
     h_psi        :      0.21s CPU      0.23s WALL (     118 calls)
     s_psi        :      0.00s CPU      0.00s WALL (     118 calls)
     g_psi        :      0.00s CPU      0.00s WALL (      80 calls)
     rdiaghg      :      0.11s CPU      0.12s WALL (     111 calls)
     regterg:over :      0.01s CPU      0.01s WALL (      80 calls)
     regterg:upda :      0.00s CPU      0.00s WALL (      80 calls)
     regterg:last :      0.00s CPU      0.00s WALL (      42 calls)
     rdiaghg:chol :      0.01s CPU      0.02s WALL (     111 calls)
     rdiaghg:inve :      0.00s CPU      0.00s WALL (     111 calls)
     rdiaghg:para :      0.01s CPU      0.01s WALL (     222 calls)

     Called by h_psi:
     h_psi:pot    :      0.21s CPU      0.22s WALL (     118 calls)
     h_psi:calbec :      0.00s CPU      0.01s WALL (     118 calls)
     vloc_psi     :      0.20s CPU      0.21s WALL (     118 calls)
     add_vuspsi   :      0.00s CPU      0.01s WALL (     118 calls)

     General routines
     calbec       :      0.05s CPU      0.05s WALL (     266 calls)
     fft          :      0.22s CPU      0.23s WALL (     355 calls)
     ffts         :      0.01s CPU      0.01s WALL (      37 calls)
     fftw         :      0.21s CPU      0.22s WALL (     717 calls)
     fftc         :      0.07s CPU      0.07s WALL (     130 calls)
     fftcw        :      0.01s CPU      0.01s WALL (      71 calls)
 
     Parallel routines
     fft_scatt_xy :      0.02s CPU      0.02s WALL (    1310 calls)
     fft_scatt_yz :      0.35s CPU      0.36s WALL (    1310 calls)

     EXX routines
     exx_grid     :      0.00s CPU      0.00s WALL (       1 calls)
     exxinit      :      0.62s CPU      0.62s WALL (       6 calls)
     vexx         :      0.13s CPU      0.14s WALL (       6 calls)
     matcalc      :      0.00s CPU      0.00s WALL (     100 calls)
     aceupdate    :      0.00s CPU      0.01s WALL (       6 calls)
     vexxace      :      0.00s CPU      0.01s WALL (      83 calls)
     aceinit      :      0.13s CPU      0.15s WALL (       6 calls)

     EXX+US  routines
     becxx        :      0.00s CPU      0.00s WALL (       6 calls)
     addusxx      :      0.02s CPU      0.02s WALL (     120 calls)
     newdxx       :      0.02s CPU      0.02s WALL (     120 calls)
     qvan_init    :      0.01s CPU      0.01s WALL (       6 calls)
     nlxx_pot     :      0.00s CPU      0.00s WALL (      30 calls)

     EXX+PAW routines
     PAW_newdxx   :      0.00s CPU      0.00s WALL (     120 calls)

     PAW routines
     PAW_pot      :      1.70s CPU      1.74s WALL (      38 calls)
     PAW_symme    :      0.00s CPU      0.00s WALL (      74 calls)
 
     PWSCF        :      5.72s CPU      9.89s WALL

 
   This run was terminated on:  11:58:32  14Jan2021            

=------------------------------------------------------------------------------=
   JOB DONE.
=------------------------------------------------------------------------------=
