
     Program PWSCF v.6.4.1 starts on 14Jan2021 at 11:59: 0 

     This program is part of the open-source Quantum ESPRESSO suite
     for quantum simulation of materials; please cite
         "P. Giannozzi et al., J. Phys.:Condens. Matter 21 395502 (2009);
         "P. Giannozzi et al., J. Phys.:Condens. Matter 29 465901 (2017);
          URL http://www.quantum-espresso.org", 
     in publications or presentations arising from this work. More details at
     http://www.quantum-espresso.org/quote

     Parallel version (MPI), running on    16 processors

     MPI processes distributed on     1 nodes
     R & G space division:  proc/nbgrp/npool/nimage =      16
     Waiting for input...
     Reading input from standard input
Warning: card &IONS ignored
Warning: card     ION_DYNAMICS="BFGS" ignored
Warning: card / ignored

     Current dimensions of program PWSCF are:
     Max number of different atomic species (ntypx) = 10
     Max number of k-points (npk) =  40000
     Max angular momentum in pseudopotentials (lmaxx) =  3

     IMPORTANT: XC functional enforced from input :
     Exchange-correlation      = HSE ( 1  4 12  4 0 0)
     EXX-fraction              =        0.25
     Using LIBXC version       =    4   3   4
     Any further DFT definition will be discarded
     Please, verify this is what you really want

               file N.pbe-n-kjpaw_psl.1.0.0.UPF: wavefunction(s)  2S renormalized

     gamma-point specific algorithms are used
     Message from routine setup :
     BEWARE: nonlinear core correction is not consistent with hybrid XC

     Subspace diagonalization in iterative solution of the eigenvalue problem:
     one sub-group per band group will be used
     scalapack distributed-memory algorithm (size of sub-group:  2*  2 procs)

     EXX: grid of k+q points same as grid of k-points
 
     Parallelization info
     --------------------
     sticks:   dense  smooth     PW     G-vecs:    dense   smooth      PW
     Min          18      18      4                 2270     2270     272
     Max          20      20      6                 2380     2380     326
     Sum         313     313     85                37495    37495    4803
 


     bravais-lattice index     =            4
     lattice parameter (alat)  =       4.8471  a.u.
     unit-cell volume          =     787.9409 (a.u.)^3
     number of atoms/cell      =            2
     number of atomic types    =            2
     number of electrons       =         8.00
     number of Kohn-Sham states=            5
     kinetic-energy cutoff     =      50.0000  Ry
     charge density cutoff     =     200.0000  Ry
     cutoff for Fock operator  =     200.0000  Ry
     convergence threshold     =      1.0E-08
     mixing beta               =       0.3100
     number of iterations used =            8  plain     mixing
     Exchange-correlation      = HSE ( 1  4 12  4 0 0)
     EXX-fraction              =        0.25
     Using LIBXC version       =    4   3   4

     celldm(1)=   4.847147  celldm(2)=   0.000000  celldm(3)=   7.989220
     celldm(4)=   0.000000  celldm(5)=   0.000000  celldm(6)=   0.000000

     crystal axes: (cart. coord. in units of alat)
               a(1) = (   1.000000   0.000000   0.000000 )  
               a(2) = (  -0.500000   0.866025   0.000000 )  
               a(3) = (   0.000000   0.000000   7.989220 )  

     reciprocal axes: (cart. coord. in units 2 pi/alat)
               b(1) = (  1.000000  0.577350  0.000000 )  
               b(2) = (  0.000000  1.154701  0.000000 )  
               b(3) = (  0.000000  0.000000  0.125169 )  


     PseudoPot. # 1 for B  read from file:
     ./pseudo/B.pbe-n-kjpaw_psl.1.0.0.UPF
     MD5 check sum: 8c825a5969375aca5c2c6ad5945b3059
     Pseudo is Projector augmented-wave + core cor, Zval =  3.0
     Generated using "atomic" code by A. Dal Corso v.6.3
     Shape of augmentation charge: PSQ
     Using radial grid of 1059 points,  4 beta functions with: 
                l(1) =   0
                l(2) =   0
                l(3) =   1
                l(4) =   1
     Q(r) pseudized with 0 coefficients 


     PseudoPot. # 2 for N  read from file:
     ./pseudo/N.pbe-n-kjpaw_psl.1.0.0.UPF
     MD5 check sum: 14c48229446f9f2d411169a3abcbc3fa
     Pseudo is Projector augmented-wave + core cor, Zval =  5.0
     Generated using "atomic" code by A. Dal Corso v.6.3
     Shape of augmentation charge: PSQ
     Using radial grid of 1085 points,  4 beta functions with: 
                l(1) =   0
                l(2) =   0
                l(3) =   1
                l(4) =   1
     Q(r) pseudized with 0 coefficients 


     atomic species   valence    mass     pseudopotential
        B              3.00    10.00000     B ( 1.00)
        N              5.00    14.00000     N ( 1.00)

     12 Sym. Ops. (no inversion) found


                                    s                        frac. trans.

      isym =  1     identity                                     

 cryst.   s( 1) = (     1          0          0      )
                  (     0          1          0      )
                  (     0          0          1      )

 cart.    s( 1) = (  1.0000000  0.0000000  0.0000000 )
                  (  0.0000000  1.0000000  0.0000000 )
                  (  0.0000000  0.0000000  1.0000000 )


      isym =  2     180 deg rotation - cart. axis [0,1,0]        

 cryst.   s( 2) = (    -1          0          0      )
                  (     1          1          0      )
                  (     0          0         -1      )

 cart.    s( 2) = ( -1.0000000  0.0000000  0.0000000 )
                  (  0.0000000  1.0000000  0.0000000 )
                  (  0.0000000  0.0000000 -1.0000000 )


      isym =  3     120 deg rotation - cryst. axis [0,0,1]       

 cryst.   s( 3) = (     0          1          0      )
                  (    -1         -1          0      )
                  (     0          0          1      )

 cart.    s( 3) = ( -0.5000000 -0.8660254  0.0000000 )
                  (  0.8660254 -0.5000000  0.0000000 )
                  (  0.0000000  0.0000000  1.0000000 )


      isym =  4     120 deg rotation - cryst. axis [0,0,-1]      

 cryst.   s( 4) = (    -1         -1          0      )
                  (     1          0          0      )
                  (     0          0          1      )

 cart.    s( 4) = ( -0.5000000  0.8660254  0.0000000 )
                  ( -0.8660254 -0.5000000  0.0000000 )
                  (  0.0000000  0.0000000  1.0000000 )


      isym =  5     180 deg rotation - cryst. axis [1,-1,0]      

 cryst.   s( 5) = (     0         -1          0      )
                  (    -1          0          0      )
                  (     0          0         -1      )

 cart.    s( 5) = (  0.5000000 -0.8660254  0.0000000 )
                  ( -0.8660254 -0.5000000  0.0000000 )
                  (  0.0000000  0.0000000 -1.0000000 )


      isym =  6     180 deg rotation - cryst. axis [2,1,0]       

 cryst.   s( 6) = (     1          1          0      )
                  (     0         -1          0      )
                  (     0          0         -1      )

 cart.    s( 6) = (  0.5000000  0.8660254  0.0000000 )
                  (  0.8660254 -0.5000000  0.0000000 )
                  (  0.0000000  0.0000000 -1.0000000 )


      isym =  7     inv. 180 deg rotation - cart. axis [0,0,1]   

 cryst.   s( 7) = (     1          0          0      )
                  (     0          1          0      )
                  (     0          0         -1      )

 cart.    s( 7) = (  1.0000000  0.0000000  0.0000000 )
                  (  0.0000000  1.0000000  0.0000000 )
                  (  0.0000000  0.0000000 -1.0000000 )


      isym =  8     inv. 180 deg rotation - cart. axis [1,0,0]   

 cryst.   s( 8) = (    -1          0          0      )
                  (     1          1          0      )
                  (     0          0          1      )

 cart.    s( 8) = ( -1.0000000  0.0000000  0.0000000 )
                  (  0.0000000  1.0000000  0.0000000 )
                  (  0.0000000  0.0000000  1.0000000 )


      isym =  9     inv.  60 deg rotation - cryst. axis [0,0,1]  

 cryst.   s( 9) = (    -1         -1          0      )
                  (     1          0          0      )
                  (     0          0         -1      )

 cart.    s( 9) = ( -0.5000000  0.8660254  0.0000000 )
                  ( -0.8660254 -0.5000000  0.0000000 )
                  (  0.0000000  0.0000000 -1.0000000 )


      isym = 10     inv.  60 deg rotation - cryst. axis [0,0,-1] 

 cryst.   s(10) = (     0          1          0      )
                  (    -1         -1          0      )
                  (     0          0         -1      )

 cart.    s(10) = ( -0.5000000 -0.8660254  0.0000000 )
                  (  0.8660254 -0.5000000  0.0000000 )
                  (  0.0000000  0.0000000 -1.0000000 )


      isym = 11     inv. 180 deg rotation - cryst. axis [0,1,0]  

 cryst.   s(11) = (     1          1          0      )
                  (     0         -1          0      )
                  (     0          0          1      )

 cart.    s(11) = (  0.5000000  0.8660254  0.0000000 )
                  (  0.8660254 -0.5000000  0.0000000 )
                  (  0.0000000  0.0000000  1.0000000 )


      isym = 12     inv. 180 deg rotation - cryst. axis [1,1,0]  

 cryst.   s(12) = (     0         -1          0      )
                  (    -1          0          0      )
                  (     0          0          1      )

 cart.    s(12) = (  0.5000000 -0.8660254  0.0000000 )
                  ( -0.8660254 -0.5000000  0.0000000 )
                  (  0.0000000  0.0000000  1.0000000 )


     point group D_3h (-62m)
     there are  6 classes
     the character table:

       E     2C3   3C2   s_h   2S3   3s_v 
A'_1   1.00  1.00  1.00  1.00  1.00  1.00
A'_2   1.00  1.00 -1.00  1.00  1.00 -1.00
E'     2.00 -1.00  0.00  2.00 -1.00  0.00
A''1   1.00  1.00  1.00 -1.00 -1.00 -1.00
A''2   1.00  1.00 -1.00 -1.00 -1.00  1.00
E''    2.00 -1.00  0.00 -2.00  1.00  0.00

     the symmetry operations in each class and the name of the first element:

     E        1
          identity                                               
     2C3      3    4
          120 deg rotation - cryst. axis [0,0,1]                 
     3C2      2    6    5
          180 deg rotation - cart. axis [0,1,0]                  
     s_h      7
          inv. 180 deg rotation - cart. axis [0,0,1]             
     2S3      9   10
          inv.  60 deg rotation - cryst. axis [0,0,1]            
     3s_v     8   11   12
          inv. 180 deg rotation - cart. axis [1,0,0]             

   Cartesian axes

     site n.     atom                  positions (alat units)
         1           B   tau(   1) = (   0.5000000   0.2886751   0.0000000  )
         2           N   tau(   2) = (  -0.0000000   0.5773503   0.0000000  )

   Crystallographic axes

     site n.     atom                  positions (cryst. coord.)
         1           B   tau(   1) = (  0.6666667  0.3333333  0.0000000  )
         2           N   tau(   2) = (  0.3333333  0.6666667  0.0000000  )

     number of k points=     1  gaussian smearing, width (Ry)=  0.0100
                       cart. coord. in units 2pi/alat
        k(    1) = (   0.0000000   0.0000000   0.0000000), wk =   2.0000000

                       cryst. coord.
        k(    1) = (   0.0000000   0.0000000   0.0000000), wk =   2.0000000

     Dense  grid:    18748 G-vectors     FFT dimensions: (  24,  24, 180)

     Dynamical RAM for                 wfc:       0.01 MB

     Dynamical RAM for     wfc (w. buffer):       0.01 MB

     Dynamical RAM for                 EXX:       2.63 MB

     Dynamical RAM for           str. fact:       0.04 MB

     Dynamical RAM for           local pot:       0.00 MB

     Dynamical RAM for          nlocal pot:       0.04 MB

     Dynamical RAM for                qrad:       0.50 MB

     Dynamical RAM for          rho,v,vnew:       0.21 MB

     Dynamical RAM for               rhoin:       0.07 MB

     Dynamical RAM for            rho*nmix:       0.29 MB

     Dynamical RAM for           G-vectors:       0.08 MB

     Dynamical RAM for          h,s,v(r/c):       0.00 MB

     Dynamical RAM for          <psi|beta>:       0.00 MB

     Dynamical RAM for                 psi:       0.04 MB

     Dynamical RAM for                hpsi:       0.04 MB

     Dynamical RAM for                spsi:       0.04 MB

     Dynamical RAM for      wfcinit/wfcrot:       0.04 MB

     Dynamical RAM for           addusdens:       0.80 MB

     Dynamical RAM for          addusforce:       0.86 MB

     Dynamical RAM for         addusstress:       0.90 MB

     Estimated static dynamical RAM per process >       4.18 MB

     Estimated max dynamical RAM per process >       5.09 MB

     Estimated total dynamical RAM >      81.41 MB

     Check: negative core charge=   -0.000009

     Initial potential from superposition of free atoms

     starting charge    7.99971, renormalised to    8.00000

     negative rho (up, down):  6.103E-04 0.000E+00
     Starting wfcs are    8 randomized atomic wfcs

     total cpu time spent up to now is        1.8 secs

     Self-consistent Calculation

     iteration #  1     ecut=    50.00 Ry     beta= 0.31
     Davidson diagonalization with overlap
     ethr =  1.00E-02,  avg # of iterations =  3.0

     negative rho (up, down):  9.044E-04 0.000E+00

     total cpu time spent up to now is        2.0 secs

     total energy              =     -39.37792437 Ry
     Harris-Foulkes estimate   =     -39.59684148 Ry
     estimated scf accuracy    <       0.58161199 Ry

     iteration #  2     ecut=    50.00 Ry     beta= 0.31
     Davidson diagonalization with overlap
     ethr =  7.27E-03,  avg # of iterations =  2.0

     negative rho (up, down):  1.219E-03 0.000E+00

     total cpu time spent up to now is        2.1 secs

     total energy              =     -39.42124334 Ry
     Harris-Foulkes estimate   =     -39.44133983 Ry
     estimated scf accuracy    <       0.08325521 Ry

     iteration #  3     ecut=    50.00 Ry     beta= 0.31
     Davidson diagonalization with overlap
     ethr =  1.04E-03,  avg # of iterations =  3.0

     negative rho (up, down):  1.485E-03 0.000E+00

     total cpu time spent up to now is        2.2 secs

     total energy              =     -39.42446930 Ry
     Harris-Foulkes estimate   =     -39.43338452 Ry
     estimated scf accuracy    <       0.03131735 Ry

     iteration #  4     ecut=    50.00 Ry     beta= 0.31
     Davidson diagonalization with overlap
     ethr =  3.91E-04,  avg # of iterations =  2.0

     negative rho (up, down):  1.689E-03 0.000E+00

     total cpu time spent up to now is        2.3 secs

     total energy              =     -39.42796651 Ry
     Harris-Foulkes estimate   =     -39.42769792 Ry
     estimated scf accuracy    <       0.00369108 Ry

     iteration #  5     ecut=    50.00 Ry     beta= 0.31
     Davidson diagonalization with overlap
     ethr =  4.61E-05,  avg # of iterations =  3.0

     negative rho (up, down):  1.684E-03 0.000E+00

     total cpu time spent up to now is        2.4 secs

     total energy              =     -39.42810197 Ry
     Harris-Foulkes estimate   =     -39.42854308 Ry
     estimated scf accuracy    <       0.00157292 Ry

     iteration #  6     ecut=    50.00 Ry     beta= 0.31
     Davidson diagonalization with overlap
     ethr =  1.97E-05,  avg # of iterations =  1.0

     negative rho (up, down):  1.698E-03 0.000E+00

     total cpu time spent up to now is        2.5 secs

     total energy              =     -39.42775309 Ry
     Harris-Foulkes estimate   =     -39.42812940 Ry
     estimated scf accuracy    <       0.00075469 Ry

     iteration #  7     ecut=    50.00 Ry     beta= 0.31
     Davidson diagonalization with overlap
     ethr =  9.43E-06,  avg # of iterations =  3.0

     negative rho (up, down):  1.698E-03 0.000E+00

     total cpu time spent up to now is        2.6 secs

     total energy              =     -39.42791796 Ry
     Harris-Foulkes estimate   =     -39.42794816 Ry
     estimated scf accuracy    <       0.00009343 Ry

     iteration #  8     ecut=    50.00 Ry     beta= 0.31
     Davidson diagonalization with overlap
     ethr =  1.17E-06,  avg # of iterations =  1.0

     negative rho (up, down):  1.699E-03 0.000E+00

     total cpu time spent up to now is        2.7 secs

     total energy              =     -39.42791056 Ry
     Harris-Foulkes estimate   =     -39.42792384 Ry
     estimated scf accuracy    <       0.00002878 Ry

     iteration #  9     ecut=    50.00 Ry     beta= 0.31
     Davidson diagonalization with overlap
     ethr =  3.60E-07,  avg # of iterations =  2.0

     negative rho (up, down):  1.699E-03 0.000E+00

     total cpu time spent up to now is        2.8 secs

     total energy              =     -39.42792141 Ry
     Harris-Foulkes estimate   =     -39.42792132 Ry
     estimated scf accuracy    <       0.00000413 Ry

     iteration # 10     ecut=    50.00 Ry     beta= 0.31
     Davidson diagonalization with overlap
     ethr =  5.17E-08,  avg # of iterations =  1.0

     negative rho (up, down):  1.701E-03 0.000E+00

     total cpu time spent up to now is        2.9 secs

     total energy              =     -39.42792167 Ry
     Harris-Foulkes estimate   =     -39.42792167 Ry
     estimated scf accuracy    <       0.00000425 Ry

     iteration # 11     ecut=    50.00 Ry     beta= 0.31
     Davidson diagonalization with overlap
     ethr =  5.17E-08,  avg # of iterations =  1.0

     negative rho (up, down):  1.701E-03 0.000E+00

     total cpu time spent up to now is        3.1 secs

     total energy              =     -39.42792032 Ry
     Harris-Foulkes estimate   =     -39.42792170 Ry
     estimated scf accuracy    <       0.00000453 Ry

     iteration # 12     ecut=    50.00 Ry     beta= 0.31
     Davidson diagonalization with overlap
     ethr =  5.17E-08,  avg # of iterations =  1.0

     negative rho (up, down):  1.702E-03 0.000E+00

     total cpu time spent up to now is        3.2 secs

     total energy              =     -39.42792012 Ry
     Harris-Foulkes estimate   =     -39.42792049 Ry
     estimated scf accuracy    <       0.00000128 Ry

     iteration # 13     ecut=    50.00 Ry     beta= 0.31
     Davidson diagonalization with overlap
     ethr =  1.60E-08,  avg # of iterations =  2.0

     negative rho (up, down):  1.702E-03 0.000E+00

     total cpu time spent up to now is        3.3 secs

     total energy              =     -39.42792019 Ry
     Harris-Foulkes estimate   =     -39.42792026 Ry
     estimated scf accuracy    <       0.00000021 Ry

     iteration # 14     ecut=    50.00 Ry     beta= 0.31
     Davidson diagonalization with overlap
     ethr =  2.57E-09,  avg # of iterations =  3.0

     negative rho (up, down):  1.702E-03 0.000E+00

     total cpu time spent up to now is        3.4 secs

     total energy              =     -39.42792020 Ry
     Harris-Foulkes estimate   =     -39.42792022 Ry
     estimated scf accuracy    <       0.00000002 Ry

     iteration # 15     ecut=    50.00 Ry     beta= 0.31
     Davidson diagonalization with overlap
     ethr =  3.03E-10,  avg # of iterations =  2.0

     negative rho (up, down):  1.702E-03 0.000E+00

     total cpu time spent up to now is        3.5 secs

     End of self-consistent calculation

          k = 0.0000 0.0000 0.0000 (  2402 PWs)   bands (ev):

   -21.6218  -9.5319  -5.5711  -5.5710   0.2087

     occupation numbers 
     1.0000   1.0000   1.0000   1.0000   0.0000

     the Fermi energy is    -2.3160 ev

!    total energy              =     -39.42792021 Ry
     Harris-Foulkes estimate   =     -39.42792022 Ry
     estimated scf accuracy    <          9.1E-09 Ry

     convergence has been achieved in  15 iterations

     Using ACE for calculation of exact exchange

     EXX grid:    18748 G-vectors     FFT dimensions: (  24,  24, 180)

     negative rho (up, down):  1.702E-03 0.000E+00

     EXX: now go back to refine exchange calculation

     total cpu time spent up to now is        4.4 secs

     Self-consistent Calculation

     iteration #  1     ecut=    50.00 Ry     beta= 0.31
     Davidson diagonalization with overlap
     ethr =  3.03E-10,  avg # of iterations =  8.0

     negative rho (up, down):  1.736E-03 0.000E+00

     total cpu time spent up to now is        4.5 secs

     total energy              =     -36.14093757 Ry
     Harris-Foulkes estimate   =     -36.14124276 Ry
     estimated scf accuracy    <       0.00078030 Ry

     iteration #  2     ecut=    50.00 Ry     beta= 0.31
     Davidson diagonalization with overlap
     ethr =  9.75E-06,  avg # of iterations =  4.0

     negative rho (up, down):  1.746E-03 0.000E+00

     total cpu time spent up to now is        4.7 secs

     total energy              =     -35.96690108 Ry
     Harris-Foulkes estimate   =     -35.96727804 Ry
     estimated scf accuracy    <       0.00276702 Ry

     iteration #  3     ecut=    50.00 Ry     beta= 0.31
     Davidson diagonalization with overlap
     ethr =  9.75E-06,  avg # of iterations =  1.0

     negative rho (up, down):  1.822E-03 0.000E+00

     total cpu time spent up to now is        4.8 secs

     total energy              =     -35.96564113 Ry
     Harris-Foulkes estimate   =     -35.96691807 Ry
     estimated scf accuracy    <       0.00190835 Ry

     iteration #  4     ecut=    50.00 Ry     beta= 0.31
     Davidson diagonalization with overlap
     ethr =  9.75E-06,  avg # of iterations =  3.0

     negative rho (up, down):  1.876E-03 0.000E+00

     total cpu time spent up to now is        5.0 secs

     total energy              =     -35.96629806 Ry
     Harris-Foulkes estimate   =     -35.96621286 Ry
     estimated scf accuracy    <       0.00023493 Ry

     iteration #  5     ecut=    50.00 Ry     beta= 0.31
     Davidson diagonalization with overlap
     ethr =  2.94E-06,  avg # of iterations =  2.0

     negative rho (up, down):  1.855E-03 0.000E+00

     total cpu time spent up to now is        5.2 secs

     total energy              =     -35.96601461 Ry
     Harris-Foulkes estimate   =     -35.96632427 Ry
     estimated scf accuracy    <       0.00050825 Ry

     iteration #  6     ecut=    50.00 Ry     beta= 0.31
     Davidson diagonalization with overlap
     ethr =  2.94E-06,  avg # of iterations =  2.0

     negative rho (up, down):  1.858E-03 0.000E+00

     total cpu time spent up to now is        5.3 secs

     total energy              =     -35.96612480 Ry
     Harris-Foulkes estimate   =     -35.96612548 Ry
     estimated scf accuracy    <       0.00000194 Ry

     iteration #  7     ecut=    50.00 Ry     beta= 0.31
     Davidson diagonalization with overlap
     ethr =  2.43E-08,  avg # of iterations =  2.0

     negative rho (up, down):  1.858E-03 0.000E+00

     total cpu time spent up to now is        5.5 secs

     total energy              =     -35.96612565 Ry
     Harris-Foulkes estimate   =     -35.96612587 Ry
     estimated scf accuracy    <       0.00000082 Ry

     iteration #  8     ecut=    50.00 Ry     beta= 0.31
     Davidson diagonalization with overlap
     ethr =  1.02E-08,  avg # of iterations =  1.0

     negative rho (up, down):  1.858E-03 0.000E+00

     total cpu time spent up to now is        5.6 secs

     total energy              =     -35.96612543 Ry
     Harris-Foulkes estimate   =     -35.96612567 Ry
     estimated scf accuracy    <       0.00000045 Ry

     iteration #  9     ecut=    50.00 Ry     beta= 0.31
     Davidson diagonalization with overlap
     ethr =  5.60E-09,  avg # of iterations =  2.0

     negative rho (up, down):  1.858E-03 0.000E+00

     total cpu time spent up to now is        5.8 secs

     End of self-consistent calculation

          k = 0.0000 0.0000 0.0000 (  2402 PWs)   bands (ev):

   -23.6923 -10.6758  -7.2916  -7.2916   0.4057

     occupation numbers 
     1.0000   1.0000   1.0000   1.0000   0.0000

     the Fermi energy is    -5.4828 ev

!    total energy              =     -35.96612550 Ry
     Harris-Foulkes estimate   =     -35.96612550 Ry
     estimated scf accuracy    <          5.5E-09 Ry

     convergence has been achieved in   9 iterations

     Using ACE for calculation of exact exchange

     total energy              =     -35.96642171 Ry
     Harris-Foulkes estimate   =     -35.96642170 Ry
     est. exchange err (dexx)  =       0.00029620 Ry
     - averaged Fock potential =       2.94288865 Ry
     + Fock energy (ACE)       =      -1.47090211 Ry

     EXX: now go back to refine exchange calculation

     total cpu time spent up to now is        6.2 secs

     Self-consistent Calculation

     iteration #  1     ecut=    50.00 Ry     beta= 0.31
     Davidson diagonalization with overlap
     ethr =  5.60E-09,  avg # of iterations =  4.0

     negative rho (up, down):  1.858E-03 0.000E+00

     total cpu time spent up to now is        6.3 secs

     total energy              =     -35.96644896 Ry
     Harris-Foulkes estimate   =     -35.96645312 Ry
     estimated scf accuracy    <       0.00001128 Ry

     iteration #  2     ecut=    50.00 Ry     beta= 0.31
     Davidson diagonalization with overlap
     ethr =  1.41E-07,  avg # of iterations =  1.0

     negative rho (up, down):  1.858E-03 0.000E+00

     total cpu time spent up to now is        6.4 secs

     total energy              =     -35.96644737 Ry
     Harris-Foulkes estimate   =     -35.96644937 Ry
     estimated scf accuracy    <       0.00000346 Ry

     iteration #  3     ecut=    50.00 Ry     beta= 0.31
     Davidson diagonalization with overlap
     ethr =  4.33E-08,  avg # of iterations =  2.0

     negative rho (up, down):  1.859E-03 0.000E+00

     total cpu time spent up to now is        6.6 secs

     total energy              =     -35.96644765 Ry
     Harris-Foulkes estimate   =     -35.96644777 Ry
     estimated scf accuracy    <       0.00000021 Ry

     iteration #  4     ecut=    50.00 Ry     beta= 0.31
     Davidson diagonalization with overlap
     ethr =  2.69E-09,  avg # of iterations =  2.0

     negative rho (up, down):  1.858E-03 0.000E+00

     total cpu time spent up to now is        6.7 secs

     total energy              =     -35.96644770 Ry
     Harris-Foulkes estimate   =     -35.96644772 Ry
     estimated scf accuracy    <       0.00000007 Ry

     iteration #  5     ecut=    50.00 Ry     beta= 0.31
     Davidson diagonalization with overlap
     ethr =  8.72E-10,  avg # of iterations =  1.0

     negative rho (up, down):  1.858E-03 0.000E+00

     total cpu time spent up to now is        6.8 secs

     total energy              =     -35.96644769 Ry
     Harris-Foulkes estimate   =     -35.96644770 Ry
     estimated scf accuracy    <       0.00000002 Ry

     iteration #  6     ecut=    50.00 Ry     beta= 0.31
     Davidson diagonalization with overlap
     ethr =  2.75E-10,  avg # of iterations =  2.0

     negative rho (up, down):  1.858E-03 0.000E+00

     total cpu time spent up to now is        6.9 secs

     End of self-consistent calculation

          k = 0.0000 0.0000 0.0000 (  2402 PWs)   bands (ev):

   -23.7125 -10.6942  -7.3136  -7.3136   0.4092

     occupation numbers 
     1.0000   1.0000   1.0000   1.0000   0.0000

     the Fermi energy is    -5.4852 ev

!    total energy              =     -35.96644770 Ry
     Harris-Foulkes estimate   =     -35.96644770 Ry
     estimated scf accuracy    <          2.1E-09 Ry

     convergence has been achieved in   6 iterations

     Using ACE for calculation of exact exchange

     total energy              =     -35.96645100 Ry
     Harris-Foulkes estimate   =     -35.96645100 Ry
     est. exchange err (dexx)  =       0.00000330 Ry
     - averaged Fock potential =       2.94163351 Ry
     + Fock energy (ACE)       =      -1.47073471 Ry

     EXX: now go back to refine exchange calculation

     total cpu time spent up to now is        7.2 secs

     Self-consistent Calculation

     iteration #  1     ecut=    50.00 Ry     beta= 0.31
     Davidson diagonalization with overlap
     ethr =  2.75E-10,  avg # of iterations =  4.0

     negative rho (up, down):  1.859E-03 0.000E+00

     total cpu time spent up to now is        7.3 secs

     total energy              =     -35.96645162 Ry
     Harris-Foulkes estimate   =     -35.96645168 Ry
     estimated scf accuracy    <       0.00000020 Ry

     iteration #  2     ecut=    50.00 Ry     beta= 0.31
     Davidson diagonalization with overlap
     ethr =  2.46E-09,  avg # of iterations =  1.0

     negative rho (up, down):  1.859E-03 0.000E+00

     total cpu time spent up to now is        7.4 secs

     total energy              =     -35.96645159 Ry
     Harris-Foulkes estimate   =     -35.96645163 Ry
     estimated scf accuracy    <       0.00000007 Ry

     iteration #  3     ecut=    50.00 Ry     beta= 0.31
     Davidson diagonalization with overlap
     ethr =  8.82E-10,  avg # of iterations =  2.0

     negative rho (up, down):  1.859E-03 0.000E+00

     total cpu time spent up to now is        7.5 secs

     End of self-consistent calculation

          k = 0.0000 0.0000 0.0000 (  2402 PWs)   bands (ev):

   -23.7147 -10.6956  -7.3162  -7.3162   0.4087

     occupation numbers 
     1.0000   1.0000   1.0000   1.0000   0.0000

     the Fermi energy is    -5.4861 ev

!    total energy              =     -35.96645160 Ry
     Harris-Foulkes estimate   =     -35.96645160 Ry
     estimated scf accuracy    <          3.2E-09 Ry

     convergence has been achieved in   3 iterations

     Using ACE for calculation of exact exchange

     total energy              =     -35.96645173 Ry
     Harris-Foulkes estimate   =     -35.96645173 Ry
     est. exchange err (dexx)  =       0.00000013 Ry
     - averaged Fock potential =       2.94145222 Ry
     + Fock energy (ACE)       =      -1.47071764 Ry

     EXX: now go back to refine exchange calculation

     total cpu time spent up to now is        7.7 secs

     Self-consistent Calculation

     iteration #  1     ecut=    50.00 Ry     beta= 0.31
     Davidson diagonalization with overlap
     ethr =  8.82E-10,  avg # of iterations =  2.0

     negative rho (up, down):  1.859E-03 0.000E+00

     total cpu time spent up to now is        7.9 secs

     total energy              =     -35.96645177 Ry
     Harris-Foulkes estimate   =     -35.96645178 Ry
     estimated scf accuracy    <       0.00000002 Ry

     iteration #  2     ecut=    50.00 Ry     beta= 0.31
     Davidson diagonalization with overlap
     ethr =  2.79E-10,  avg # of iterations =  1.0

     negative rho (up, down):  1.859E-03 0.000E+00

     total cpu time spent up to now is        8.0 secs

     End of self-consistent calculation

          k = 0.0000 0.0000 0.0000 (  2402 PWs)   bands (ev):

   -23.7147 -10.6955  -7.3163  -7.3163   0.4087

     occupation numbers 
     1.0000   1.0000   1.0000   1.0000   0.0000

     the Fermi energy is    -5.4861 ev

!    total energy              =     -35.96645177 Ry
     Harris-Foulkes estimate   =     -35.96645177 Ry
     estimated scf accuracy    <          4.8E-09 Ry

     convergence has been achieved in   2 iterations

     Using ACE for calculation of exact exchange

     total energy              =     -35.96645178 Ry
     Harris-Foulkes estimate   =     -35.96645178 Ry
     est. exchange err (dexx)  =       0.00000001 Ry
     - averaged Fock potential =       2.94144278 Ry
     + Fock energy (ACE)       =      -1.47072515 Ry

     EXX: now go back to refine exchange calculation

     total cpu time spent up to now is        8.1 secs

     Self-consistent Calculation

     iteration #  1     ecut=    50.00 Ry     beta= 0.31
     Davidson diagonalization with overlap
     ethr =  2.79E-10,  avg # of iterations =  2.0

     Threshold (ethr) on eigenvalues was too large:
     Diagonalizing with lowered threshold

     Davidson diagonalization with overlap
     ethr =  1.21E-11,  avg # of iterations =  1.0

     negative rho (up, down):  1.859E-03 0.000E+00

     total cpu time spent up to now is        8.3 secs

     End of self-consistent calculation

          k = 0.0000 0.0000 0.0000 (  2402 PWs)   bands (ev):

   -23.7149 -10.6956  -7.3165  -7.3165   0.4087

     occupation numbers 
     1.0000   1.0000   1.0000   1.0000   0.0000

     the Fermi energy is    -5.4862 ev

!    total energy              =     -35.96645178 Ry
     Harris-Foulkes estimate   =     -35.96645178 Ry
     estimated scf accuracy    <          8.5E-10 Ry

     convergence has been achieved in   1 iterations

     Using ACE for calculation of exact exchange

!!   total energy              =     -35.96645178 Ry
     Harris-Foulkes estimate   =     -35.96645178 Ry
     est. exchange err (dexx)  =          3.9E-10 Ry
     - averaged Fock potential =       2.94144512 Ry
     + Fock energy (ACE)       =      -1.47071997 Ry

     EXX self-consistency reached

     negative rho (up, down):  1.859E-03 0.000E+00

     Forces acting on atoms (cartesian axes, Ry/au):

     atom    1 type  1   force =     0.00000000    0.00000000    0.00000000
     atom    2 type  2   force =     0.00000000    0.00000000    0.00000000
     The non-local contrib.  to forces
     atom    1 type  1   force =    -0.00000000   -0.00000000    0.00000000
     atom    2 type  2   force =    -0.00000000   -0.00000000    0.00000000
     The ionic contribution  to forces
     atom    1 type  1   force =    -0.00000148    0.00000085    0.00000000
     atom    2 type  2   force =     0.00000148   -0.00000085    0.00000000
     The local contribution  to forces
     atom    1 type  1   force =     0.00000147   -0.00000085   -0.00000000
     atom    2 type  2   force =    -0.00000171    0.00000099   -0.00000001
     The core correction contribution to forces
     atom    1 type  1   force =     0.00000002   -0.00000001   -0.00000000
     atom    2 type  2   force =     0.00000001   -0.00000000    0.00000000
     The Hubbard contrib.    to forces
     atom    1 type  1   force =     0.00000000    0.00000000    0.00000000
     atom    2 type  2   force =     0.00000000    0.00000000    0.00000000
     The SCF correction term to forces
     atom    1 type  1   force =    -0.00000000    0.00000000    0.00000000
     atom    2 type  2   force =     0.00000000   -0.00000000    0.00000001

     Total force =     0.000000     Total SCF correction =     0.000000


     Computing stress (Cartesian axis) and pressure


     negative rho (up, down):  1.859E-03 0.000E+00
     Message from routine exx_stress:
     USPP stress not tested
          total   stress  (Ry/bohr**3)                   (kbar)     P=   35.62
   0.00017102  -0.00000000   0.00000000         25.16     -0.00      0.00
   0.00000000   0.00017102   0.00000000          0.00     25.16      0.00
   0.00000000   0.00000000   0.00038440          0.00      0.00     56.55

     kinetic stress (kbar)   2117.66      0.00      0.00
                                0.00   2117.66      0.00
                                0.00      0.00   2012.35

     local   stress (kbar) -41789.68     -0.00     -0.00
                               -0.00 -41789.68      0.00
                               -0.00      0.00  41872.44

     nonloc. stress (kbar)    -31.81      0.00     -0.00
                                0.00    -31.81     -0.00
                               -0.00     -0.00     -7.63

     hartree stress (kbar)  20034.02      0.00      0.00
                                0.00  20034.02      0.00
                                0.00      0.00 -19595.82

     exc-cor stress (kbar)   -153.70      0.00      0.00
                                0.00   -153.70     -0.00
                                0.00     -0.00   -161.24

     corecor stress (kbar)   -201.16     -0.00     -0.00
                               -0.00   -201.16      0.00
                               -0.00      0.00   -190.70

     ewald   stress (kbar)  20163.99      0.00      0.00
                                0.00  20163.99     -0.00
                                0.00     -0.00 -23813.88

     hubbard stress (kbar)      0.00      0.00      0.00
                                0.00      0.00      0.00
                                0.00      0.00      0.00

     london  stress (kbar)      0.00      0.00      0.00
                                0.00      0.00      0.00
                                0.00      0.00      0.00

     DFT-D3  stress (kbar)      0.00      0.00      0.00
                                0.00      0.00      0.00
                                0.00      0.00      0.00

     XDM     stress (kbar)      0.00      0.00      0.00
                                0.00      0.00      0.00
                                0.00      0.00      0.00

     dft-nl  stress (kbar)      0.00      0.00      0.00
                                0.00      0.00      0.00
                                0.00      0.00      0.00

     TS-vdW  stress (kbar)      0.00      0.00      0.00
                                0.00      0.00      0.00
                                0.00      0.00      0.00


     EXX     stress (kbar)   -114.16      0.00      0.00
                                0.00   -114.16     -0.00
                                0.00     -0.00    -58.98



     Writing output data file hBN.save/
 
     init_run     :      0.41s CPU      0.47s WALL (       1 calls)
     electrons    :      3.25s CPU      5.71s WALL (       6 calls)
     forces       :      0.08s CPU      0.08s WALL (       1 calls)
     stress       :      0.16s CPU      0.17s WALL (       1 calls)

     Called by init_run:
     wfcinit      :      0.25s CPU      0.28s WALL (       1 calls)
     wfcinit:atom :      0.00s CPU      0.00s WALL (       1 calls)
     wfcinit:wfcr :      0.25s CPU      0.25s WALL (       1 calls)
     potinit      :      0.09s CPU      0.11s WALL (       1 calls)
     hinit0       :      0.07s CPU      0.07s WALL (       1 calls)

     Called by electrons:
     c_bands      :      0.28s CPU      0.96s WALL (      37 calls)
     sum_band     :      0.10s CPU      0.11s WALL (      37 calls)
     v_of_rho     :      1.21s CPU      1.24s WALL (      38 calls)
     v_h          :      0.01s CPU      0.01s WALL (      38 calls)
     v_xc         :      1.26s CPU      1.29s WALL (      40 calls)
     newd         :      0.05s CPU      0.06s WALL (      37 calls)
     PAW_pot      :      1.70s CPU      1.74s WALL (      38 calls)
     mix_rho      :      0.02s CPU      0.03s WALL (      37 calls)

     Called by c_bands:
     init_us_2    :      0.01s CPU      0.01s WALL (     111 calls)
     regterg      :      0.27s CPU      0.28s WALL (      37 calls)

     Called by sum_band:
     sum_band:bec :      0.00s CPU      0.00s WALL (      37 calls)
     addusdens    :      0.05s CPU      0.06s WALL (      37 calls)

     Called by *egterg:
     h_psi        :      0.36s CPU      0.37s WALL (     118 calls)
     s_psi        :      0.00s CPU      0.00s WALL (     118 calls)
     g_psi        :      0.00s CPU      0.00s WALL (      80 calls)
     rdiaghg      :      0.12s CPU      0.12s WALL (     111 calls)
     regterg:over :      0.02s CPU      0.02s WALL (      80 calls)
     regterg:upda :      0.00s CPU      0.00s WALL (      80 calls)
     regterg:last :      0.00s CPU      0.00s WALL (      42 calls)
     rdiaghg:chol :      0.01s CPU      0.01s WALL (     111 calls)
     rdiaghg:inve :      0.00s CPU      0.00s WALL (     111 calls)
     rdiaghg:para :      0.01s CPU      0.01s WALL (     222 calls)

     Called by h_psi:
     h_psi:pot    :      0.35s CPU      0.37s WALL (     118 calls)
     h_psi:calbec :      0.00s CPU      0.00s WALL (     118 calls)
     vloc_psi     :      0.35s CPU      0.36s WALL (     118 calls)
     add_vuspsi   :      0.00s CPU      0.00s WALL (     118 calls)

     General routines
     calbec       :      0.05s CPU      0.05s WALL (     266 calls)
     fft          :      0.20s CPU      0.21s WALL (     355 calls)
     ffts         :      0.01s CPU      0.01s WALL (      37 calls)
     fftw         :      0.36s CPU      0.37s WALL (     717 calls)
     fftc         :      0.04s CPU      0.04s WALL (     130 calls)
     fftcw        :      0.01s CPU      0.01s WALL (      71 calls)
 
     Parallel routines
     fft_scatt_xy :      0.02s CPU      0.02s WALL (    1310 calls)
     fft_scatt_yz :      0.42s CPU      0.43s WALL (    1310 calls)

     EXX routines
     exx_grid     :      0.00s CPU      0.00s WALL (       1 calls)
     exxinit      :      0.61s CPU      0.62s WALL (       6 calls)
     vexx         :      0.10s CPU      0.11s WALL (       6 calls)
     matcalc      :      0.00s CPU      0.00s WALL (     100 calls)
     aceupdate    :      0.00s CPU      0.00s WALL (       6 calls)
     vexxace      :      0.00s CPU      0.01s WALL (      83 calls)
     aceinit      :      0.11s CPU      0.11s WALL (       6 calls)

     EXX+US  routines
     becxx        :      0.00s CPU      0.00s WALL (       6 calls)
     addusxx      :      0.02s CPU      0.02s WALL (     120 calls)
     newdxx       :      0.02s CPU      0.02s WALL (     120 calls)
     qvan_init    :      0.01s CPU      0.01s WALL (       6 calls)
     nlxx_pot     :      0.00s CPU      0.00s WALL (      30 calls)

     EXX+PAW routines
     PAW_newdxx   :      0.00s CPU      0.00s WALL (     120 calls)

     PAW routines
     PAW_pot      :      1.70s CPU      1.74s WALL (      38 calls)
     PAW_symme    :      0.00s CPU      0.00s WALL (      74 calls)
 
     PWSCF        :      5.65s CPU      9.91s WALL

 
   This run was terminated on:  11:59:10  14Jan2021            

=------------------------------------------------------------------------------=
   JOB DONE.
=------------------------------------------------------------------------------=
