
     Program PWSCF v.6.4.1 starts on 14Jan2021 at 12: 1: 2 

     This program is part of the open-source Quantum ESPRESSO suite
     for quantum simulation of materials; please cite
         "P. Giannozzi et al., J. Phys.:Condens. Matter 21 395502 (2009);
         "P. Giannozzi et al., J. Phys.:Condens. Matter 29 465901 (2017);
          URL http://www.quantum-espresso.org", 
     in publications or presentations arising from this work. More details at
     http://www.quantum-espresso.org/quote

     Parallel version (MPI), running on    16 processors

     MPI processes distributed on     1 nodes
     R & G space division:  proc/nbgrp/npool/nimage =      16
     Waiting for input...
     Reading input from standard input
Warning: card &IONS ignored
Warning: card     ION_DYNAMICS="BFGS" ignored
Warning: card / ignored

     Current dimensions of program PWSCF are:
     Max number of different atomic species (ntypx) = 10
     Max number of k-points (npk) =  40000
     Max angular momentum in pseudopotentials (lmaxx) =  3

     IMPORTANT: XC functional enforced from input :
     Exchange-correlation      = HSE ( 1  4 12  4 0 0)
     EXX-fraction              =        0.25
     Using LIBXC version       =    4   3   4
     Any further DFT definition will be discarded
     Please, verify this is what you really want

               file N.pbe-n-kjpaw_psl.1.0.0.UPF: wavefunction(s)  2S renormalized

     gamma-point specific algorithms are used
     Message from routine setup :
     BEWARE: nonlinear core correction is not consistent with hybrid XC

     Subspace diagonalization in iterative solution of the eigenvalue problem:
     one sub-group per band group will be used
     scalapack distributed-memory algorithm (size of sub-group:  2*  2 procs)

     EXX: grid of k+q points same as grid of k-points
 
     Parallelization info
     --------------------
     sticks:   dense  smooth     PW     G-vecs:    dense   smooth      PW
     Min          20      20      4                 2420     2420     280
     Max          26      26      6                 2450     2450     338
     Sum         337     337     85                38985    38985    4997
 


     bravais-lattice index     =            4
     lattice parameter (alat)  =       4.9133  a.u.
     unit-cell volume          =     820.6379 (a.u.)^3
     number of atoms/cell      =            2
     number of atomic types    =            2
     number of electrons       =         8.00
     number of Kohn-Sham states=            5
     kinetic-energy cutoff     =      50.0000  Ry
     charge density cutoff     =     200.0000  Ry
     cutoff for Fock operator  =     200.0000  Ry
     convergence threshold     =      1.0E-08
     mixing beta               =       0.3100
     number of iterations used =            8  plain     mixing
     Exchange-correlation      = HSE ( 1  4 12  4 0 0)
     EXX-fraction              =        0.25
     Using LIBXC version       =    4   3   4

     celldm(1)=   4.913288  celldm(2)=   0.000000  celldm(3)=   7.989220
     celldm(4)=   0.000000  celldm(5)=   0.000000  celldm(6)=   0.000000

     crystal axes: (cart. coord. in units of alat)
               a(1) = (   1.000000   0.000000   0.000000 )  
               a(2) = (  -0.500000   0.866025   0.000000 )  
               a(3) = (   0.000000   0.000000   7.989220 )  

     reciprocal axes: (cart. coord. in units 2 pi/alat)
               b(1) = (  1.000000  0.577350  0.000000 )  
               b(2) = (  0.000000  1.154701  0.000000 )  
               b(3) = (  0.000000  0.000000  0.125169 )  


     PseudoPot. # 1 for B  read from file:
     ./pseudo/B.pbe-n-kjpaw_psl.1.0.0.UPF
     MD5 check sum: 8c825a5969375aca5c2c6ad5945b3059
     Pseudo is Projector augmented-wave + core cor, Zval =  3.0
     Generated using "atomic" code by A. Dal Corso v.6.3
     Shape of augmentation charge: PSQ
     Using radial grid of 1059 points,  4 beta functions with: 
                l(1) =   0
                l(2) =   0
                l(3) =   1
                l(4) =   1
     Q(r) pseudized with 0 coefficients 


     PseudoPot. # 2 for N  read from file:
     ./pseudo/N.pbe-n-kjpaw_psl.1.0.0.UPF
     MD5 check sum: 14c48229446f9f2d411169a3abcbc3fa
     Pseudo is Projector augmented-wave + core cor, Zval =  5.0
     Generated using "atomic" code by A. Dal Corso v.6.3
     Shape of augmentation charge: PSQ
     Using radial grid of 1085 points,  4 beta functions with: 
                l(1) =   0
                l(2) =   0
                l(3) =   1
                l(4) =   1
     Q(r) pseudized with 0 coefficients 


     atomic species   valence    mass     pseudopotential
        B              3.00    10.00000     B ( 1.00)
        N              5.00    14.00000     N ( 1.00)

     12 Sym. Ops. (no inversion) found


                                    s                        frac. trans.

      isym =  1     identity                                     

 cryst.   s( 1) = (     1          0          0      )
                  (     0          1          0      )
                  (     0          0          1      )

 cart.    s( 1) = (  1.0000000  0.0000000  0.0000000 )
                  (  0.0000000  1.0000000  0.0000000 )
                  (  0.0000000  0.0000000  1.0000000 )


      isym =  2     180 deg rotation - cart. axis [0,1,0]        

 cryst.   s( 2) = (    -1          0          0      )
                  (     1          1          0      )
                  (     0          0         -1      )

 cart.    s( 2) = ( -1.0000000  0.0000000  0.0000000 )
                  (  0.0000000  1.0000000  0.0000000 )
                  (  0.0000000  0.0000000 -1.0000000 )


      isym =  3     120 deg rotation - cryst. axis [0,0,1]       

 cryst.   s( 3) = (     0          1          0      )
                  (    -1         -1          0      )
                  (     0          0          1      )

 cart.    s( 3) = ( -0.5000000 -0.8660254  0.0000000 )
                  (  0.8660254 -0.5000000  0.0000000 )
                  (  0.0000000  0.0000000  1.0000000 )


      isym =  4     120 deg rotation - cryst. axis [0,0,-1]      

 cryst.   s( 4) = (    -1         -1          0      )
                  (     1          0          0      )
                  (     0          0          1      )

 cart.    s( 4) = ( -0.5000000  0.8660254  0.0000000 )
                  ( -0.8660254 -0.5000000  0.0000000 )
                  (  0.0000000  0.0000000  1.0000000 )


      isym =  5     180 deg rotation - cryst. axis [1,-1,0]      

 cryst.   s( 5) = (     0         -1          0      )
                  (    -1          0          0      )
                  (     0          0         -1      )

 cart.    s( 5) = (  0.5000000 -0.8660254  0.0000000 )
                  ( -0.8660254 -0.5000000  0.0000000 )
                  (  0.0000000  0.0000000 -1.0000000 )


      isym =  6     180 deg rotation - cryst. axis [2,1,0]       

 cryst.   s( 6) = (     1          1          0      )
                  (     0         -1          0      )
                  (     0          0         -1      )

 cart.    s( 6) = (  0.5000000  0.8660254  0.0000000 )
                  (  0.8660254 -0.5000000  0.0000000 )
                  (  0.0000000  0.0000000 -1.0000000 )


      isym =  7     inv. 180 deg rotation - cart. axis [0,0,1]   

 cryst.   s( 7) = (     1          0          0      )
                  (     0          1          0      )
                  (     0          0         -1      )

 cart.    s( 7) = (  1.0000000  0.0000000  0.0000000 )
                  (  0.0000000  1.0000000  0.0000000 )
                  (  0.0000000  0.0000000 -1.0000000 )


      isym =  8     inv. 180 deg rotation - cart. axis [1,0,0]   

 cryst.   s( 8) = (    -1          0          0      )
                  (     1          1          0      )
                  (     0          0          1      )

 cart.    s( 8) = ( -1.0000000  0.0000000  0.0000000 )
                  (  0.0000000  1.0000000  0.0000000 )
                  (  0.0000000  0.0000000  1.0000000 )


      isym =  9     inv.  60 deg rotation - cryst. axis [0,0,1]  

 cryst.   s( 9) = (    -1         -1          0      )
                  (     1          0          0      )
                  (     0          0         -1      )

 cart.    s( 9) = ( -0.5000000  0.8660254  0.0000000 )
                  ( -0.8660254 -0.5000000  0.0000000 )
                  (  0.0000000  0.0000000 -1.0000000 )


      isym = 10     inv.  60 deg rotation - cryst. axis [0,0,-1] 

 cryst.   s(10) = (     0          1          0      )
                  (    -1         -1          0      )
                  (     0          0         -1      )

 cart.    s(10) = ( -0.5000000 -0.8660254  0.0000000 )
                  (  0.8660254 -0.5000000  0.0000000 )
                  (  0.0000000  0.0000000 -1.0000000 )


      isym = 11     inv. 180 deg rotation - cryst. axis [0,1,0]  

 cryst.   s(11) = (     1          1          0      )
                  (     0         -1          0      )
                  (     0          0          1      )

 cart.    s(11) = (  0.5000000  0.8660254  0.0000000 )
                  (  0.8660254 -0.5000000  0.0000000 )
                  (  0.0000000  0.0000000  1.0000000 )


      isym = 12     inv. 180 deg rotation - cryst. axis [1,1,0]  

 cryst.   s(12) = (     0         -1          0      )
                  (    -1          0          0      )
                  (     0          0          1      )

 cart.    s(12) = (  0.5000000 -0.8660254  0.0000000 )
                  ( -0.8660254 -0.5000000  0.0000000 )
                  (  0.0000000  0.0000000  1.0000000 )


     point group D_3h (-62m)
     there are  6 classes
     the character table:

       E     2C3   3C2   s_h   2S3   3s_v 
A'_1   1.00  1.00  1.00  1.00  1.00  1.00
A'_2   1.00  1.00 -1.00  1.00  1.00 -1.00
E'     2.00 -1.00  0.00  2.00 -1.00  0.00
A''1   1.00  1.00  1.00 -1.00 -1.00 -1.00
A''2   1.00  1.00 -1.00 -1.00 -1.00  1.00
E''    2.00 -1.00  0.00 -2.00  1.00  0.00

     the symmetry operations in each class and the name of the first element:

     E        1
          identity                                               
     2C3      3    4
          120 deg rotation - cryst. axis [0,0,1]                 
     3C2      2    6    5
          180 deg rotation - cart. axis [0,1,0]                  
     s_h      7
          inv. 180 deg rotation - cart. axis [0,0,1]             
     2S3      9   10
          inv.  60 deg rotation - cryst. axis [0,0,1]            
     3s_v     8   11   12
          inv. 180 deg rotation - cart. axis [1,0,0]             

   Cartesian axes

     site n.     atom                  positions (alat units)
         1           B   tau(   1) = (   0.5000000   0.2886751   0.0000000  )
         2           N   tau(   2) = (  -0.0000000   0.5773503   0.0000000  )

   Crystallographic axes

     site n.     atom                  positions (cryst. coord.)
         1           B   tau(   1) = (  0.6666667  0.3333333  0.0000000  )
         2           N   tau(   2) = (  0.3333333  0.6666667  0.0000000  )

     number of k points=     1  gaussian smearing, width (Ry)=  0.0100
                       cart. coord. in units 2pi/alat
        k(    1) = (   0.0000000   0.0000000   0.0000000), wk =   2.0000000

                       cryst. coord.
        k(    1) = (   0.0000000   0.0000000   0.0000000), wk =   2.0000000

     Dense  grid:    19493 G-vectors     FFT dimensions: (  24,  24, 180)

     Dynamical RAM for                 wfc:       0.01 MB

     Dynamical RAM for     wfc (w. buffer):       0.01 MB

     Dynamical RAM for                 EXX:       2.74 MB

     Dynamical RAM for           str. fact:       0.04 MB

     Dynamical RAM for           local pot:       0.00 MB

     Dynamical RAM for          nlocal pot:       0.04 MB

     Dynamical RAM for                qrad:       0.51 MB

     Dynamical RAM for          rho,v,vnew:       0.21 MB

     Dynamical RAM for               rhoin:       0.07 MB

     Dynamical RAM for            rho*nmix:       0.30 MB

     Dynamical RAM for           G-vectors:       0.08 MB

     Dynamical RAM for          h,s,v(r/c):       0.00 MB

     Dynamical RAM for          <psi|beta>:       0.00 MB

     Dynamical RAM for                 psi:       0.05 MB

     Dynamical RAM for                hpsi:       0.05 MB

     Dynamical RAM for                spsi:       0.05 MB

     Dynamical RAM for      wfcinit/wfcrot:       0.04 MB

     Dynamical RAM for           addusdens:       0.82 MB

     Dynamical RAM for          addusforce:       0.88 MB

     Dynamical RAM for         addusstress:       0.93 MB

     Estimated static dynamical RAM per process >       4.31 MB

     Estimated max dynamical RAM per process >       5.24 MB

     Estimated total dynamical RAM >      83.87 MB

     Check: negative core charge=   -0.000009

     Initial potential from superposition of free atoms

     starting charge    7.99971, renormalised to    8.00000

     negative rho (up, down):  6.554E-04 0.000E+00
     Starting wfcs are    8 randomized atomic wfcs

     total cpu time spent up to now is        1.8 secs

     Self-consistent Calculation

     iteration #  1     ecut=    50.00 Ry     beta= 0.31
     Davidson diagonalization with overlap
     ethr =  1.00E-02,  avg # of iterations =  3.0

     negative rho (up, down):  9.627E-04 0.000E+00

     total cpu time spent up to now is        2.0 secs

     total energy              =     -39.37172458 Ry
     Harris-Foulkes estimate   =     -39.58552763 Ry
     estimated scf accuracy    <       0.56714604 Ry

     iteration #  2     ecut=    50.00 Ry     beta= 0.31
     Davidson diagonalization with overlap
     ethr =  7.09E-03,  avg # of iterations =  2.0

     negative rho (up, down):  1.278E-03 0.000E+00

     total cpu time spent up to now is        2.1 secs

     total energy              =     -39.42079562 Ry
     Harris-Foulkes estimate   =     -39.43704173 Ry
     estimated scf accuracy    <       0.07613109 Ry

     iteration #  3     ecut=    50.00 Ry     beta= 0.31
     Davidson diagonalization with overlap
     ethr =  9.52E-04,  avg # of iterations =  3.0

     negative rho (up, down):  1.558E-03 0.000E+00

     total cpu time spent up to now is        2.2 secs

     total energy              =     -39.42395428 Ry
     Harris-Foulkes estimate   =     -39.43243745 Ry
     estimated scf accuracy    <       0.03143673 Ry

     iteration #  4     ecut=    50.00 Ry     beta= 0.31
     Davidson diagonalization with overlap
     ethr =  3.93E-04,  avg # of iterations =  2.0

     negative rho (up, down):  1.811E-03 0.000E+00

     total cpu time spent up to now is        2.4 secs

     total energy              =     -39.42716482 Ry
     Harris-Foulkes estimate   =     -39.42684404 Ry
     estimated scf accuracy    <       0.00413257 Ry

     iteration #  5     ecut=    50.00 Ry     beta= 0.31
     Davidson diagonalization with overlap
     ethr =  5.17E-05,  avg # of iterations =  3.0

     negative rho (up, down):  1.806E-03 0.000E+00

     total cpu time spent up to now is        2.5 secs

     total energy              =     -39.42749601 Ry
     Harris-Foulkes estimate   =     -39.42780724 Ry
     estimated scf accuracy    <       0.00157606 Ry

     iteration #  6     ecut=    50.00 Ry     beta= 0.31
     Davidson diagonalization with overlap
     ethr =  1.97E-05,  avg # of iterations =  1.0

     negative rho (up, down):  1.813E-03 0.000E+00

     total cpu time spent up to now is        2.6 secs

     total energy              =     -39.42695811 Ry
     Harris-Foulkes estimate   =     -39.42751784 Ry
     estimated scf accuracy    <       0.00106193 Ry

     iteration #  7     ecut=    50.00 Ry     beta= 0.31
     Davidson diagonalization with overlap
     ethr =  1.33E-05,  avg # of iterations =  2.0

     negative rho (up, down):  1.811E-03 0.000E+00

     total cpu time spent up to now is        2.7 secs

     total energy              =     -39.42716722 Ry
     Harris-Foulkes estimate   =     -39.42721168 Ry
     estimated scf accuracy    <       0.00015602 Ry

     iteration #  8     ecut=    50.00 Ry     beta= 0.31
     Davidson diagonalization with overlap
     ethr =  1.95E-06,  avg # of iterations =  3.0

     negative rho (up, down):  1.813E-03 0.000E+00

     total cpu time spent up to now is        2.8 secs

     total energy              =     -39.42714719 Ry
     Harris-Foulkes estimate   =     -39.42717473 Ry
     estimated scf accuracy    <       0.00006065 Ry

     iteration #  9     ecut=    50.00 Ry     beta= 0.31
     Davidson diagonalization with overlap
     ethr =  7.58E-07,  avg # of iterations =  2.0

     negative rho (up, down):  1.813E-03 0.000E+00

     total cpu time spent up to now is        2.9 secs

     total energy              =     -39.42716509 Ry
     Harris-Foulkes estimate   =     -39.42716481 Ry
     estimated scf accuracy    <       0.00000415 Ry

     iteration # 10     ecut=    50.00 Ry     beta= 0.31
     Davidson diagonalization with overlap
     ethr =  5.19E-08,  avg # of iterations =  1.0

     negative rho (up, down):  1.814E-03 0.000E+00

     total cpu time spent up to now is        3.0 secs

     total energy              =     -39.42716545 Ry
     Harris-Foulkes estimate   =     -39.42716534 Ry
     estimated scf accuracy    <       0.00000432 Ry

     iteration # 11     ecut=    50.00 Ry     beta= 0.31
     Davidson diagonalization with overlap
     ethr =  5.19E-08,  avg # of iterations =  1.0

     negative rho (up, down):  1.815E-03 0.000E+00

     total cpu time spent up to now is        3.2 secs

     total energy              =     -39.42716459 Ry
     Harris-Foulkes estimate   =     -39.42716559 Ry
     estimated scf accuracy    <       0.00000512 Ry

     iteration # 12     ecut=    50.00 Ry     beta= 0.31
     Davidson diagonalization with overlap
     ethr =  5.19E-08,  avg # of iterations =  1.0

     negative rho (up, down):  1.815E-03 0.000E+00

     total cpu time spent up to now is        3.3 secs

     total energy              =     -39.42716359 Ry
     Harris-Foulkes estimate   =     -39.42716463 Ry
     estimated scf accuracy    <       0.00000308 Ry

     iteration # 13     ecut=    50.00 Ry     beta= 0.31
     Davidson diagonalization with overlap
     ethr =  3.85E-08,  avg # of iterations =  2.0

     negative rho (up, down):  1.815E-03 0.000E+00

     total cpu time spent up to now is        3.4 secs

     total energy              =     -39.42716388 Ry
     Harris-Foulkes estimate   =     -39.42716393 Ry
     estimated scf accuracy    <       0.00000021 Ry

     iteration # 14     ecut=    50.00 Ry     beta= 0.31
     Davidson diagonalization with overlap
     ethr =  2.59E-09,  avg # of iterations =  1.0

     negative rho (up, down):  1.815E-03 0.000E+00

     total cpu time spent up to now is        3.5 secs

     total energy              =     -39.42716386 Ry
     Harris-Foulkes estimate   =     -39.42716389 Ry
     estimated scf accuracy    <       0.00000007 Ry

     iteration # 15     ecut=    50.00 Ry     beta= 0.31
     Davidson diagonalization with overlap
     ethr =  8.60E-10,  avg # of iterations =  3.0

     negative rho (up, down):  1.815E-03 0.000E+00

     total cpu time spent up to now is        3.6 secs

     End of self-consistent calculation

          k = 0.0000 0.0000 0.0000 (  2499 PWs)   bands (ev):

   -21.4772  -9.4278  -5.7063  -5.7063   0.1336

     occupation numbers 
     1.0000   1.0000   1.0000   1.0000   0.0000

     the Fermi energy is    -2.3637 ev

!    total energy              =     -39.42716388 Ry
     Harris-Foulkes estimate   =     -39.42716388 Ry
     estimated scf accuracy    <          4.7E-09 Ry

     convergence has been achieved in  15 iterations

     Using ACE for calculation of exact exchange

     EXX grid:    19493 G-vectors     FFT dimensions: (  24,  24, 180)

     negative rho (up, down):  1.815E-03 0.000E+00

     EXX: now go back to refine exchange calculation

     total cpu time spent up to now is        4.6 secs

     Self-consistent Calculation

     iteration #  1     ecut=    50.00 Ry     beta= 0.31
     Davidson diagonalization with overlap
     ethr =  8.60E-10,  avg # of iterations =  8.0

     negative rho (up, down):  1.849E-03 0.000E+00

     total cpu time spent up to now is        4.8 secs

     total energy              =     -36.13685737 Ry
     Harris-Foulkes estimate   =     -36.13717929 Ry
     estimated scf accuracy    <       0.00081949 Ry

     iteration #  2     ecut=    50.00 Ry     beta= 0.31
     Davidson diagonalization with overlap
     ethr =  1.02E-05,  avg # of iterations =  4.0

     negative rho (up, down):  1.861E-03 0.000E+00

     total cpu time spent up to now is        4.9 secs

     total energy              =     -35.96606723 Ry
     Harris-Foulkes estimate   =     -35.96646134 Ry
     estimated scf accuracy    <       0.00289379 Ry

     iteration #  3     ecut=    50.00 Ry     beta= 0.31
     Davidson diagonalization with overlap
     ethr =  1.02E-05,  avg # of iterations =  1.0

     negative rho (up, down):  1.951E-03 0.000E+00

     total cpu time spent up to now is        5.0 secs

     total energy              =     -35.96475486 Ry
     Harris-Foulkes estimate   =     -35.96608544 Ry
     estimated scf accuracy    <       0.00198701 Ry

     iteration #  4     ecut=    50.00 Ry     beta= 0.31
     Davidson diagonalization with overlap
     ethr =  1.02E-05,  avg # of iterations =  3.0

     negative rho (up, down):  2.014E-03 0.000E+00

     total cpu time spent up to now is        5.1 secs

     total energy              =     -35.96545972 Ry
     Harris-Foulkes estimate   =     -35.96536597 Ry
     estimated scf accuracy    <       0.00026894 Ry

     iteration #  5     ecut=    50.00 Ry     beta= 0.31
     Davidson diagonalization with overlap
     ethr =  3.36E-06,  avg # of iterations =  2.0

     negative rho (up, down):  1.987E-03 0.000E+00

     total cpu time spent up to now is        5.2 secs

     total energy              =     -35.96514418 Ry
     Harris-Foulkes estimate   =     -35.96548803 Ry
     estimated scf accuracy    <       0.00057127 Ry

     iteration #  6     ecut=    50.00 Ry     beta= 0.31
     Davidson diagonalization with overlap
     ethr =  3.36E-06,  avg # of iterations =  2.0

     negative rho (up, down):  1.990E-03 0.000E+00

     total cpu time spent up to now is        5.4 secs

     total energy              =     -35.96526717 Ry
     Harris-Foulkes estimate   =     -35.96526789 Ry
     estimated scf accuracy    <       0.00000209 Ry

     iteration #  7     ecut=    50.00 Ry     beta= 0.31
     Davidson diagonalization with overlap
     ethr =  2.61E-08,  avg # of iterations =  2.0

     negative rho (up, down):  1.990E-03 0.000E+00

     total cpu time spent up to now is        5.5 secs

     total energy              =     -35.96526813 Ry
     Harris-Foulkes estimate   =     -35.96526837 Ry
     estimated scf accuracy    <       0.00000094 Ry

     iteration #  8     ecut=    50.00 Ry     beta= 0.31
     Davidson diagonalization with overlap
     ethr =  1.17E-08,  avg # of iterations =  1.0

     negative rho (up, down):  1.990E-03 0.000E+00

     total cpu time spent up to now is        5.6 secs

     total energy              =     -35.96526786 Ry
     Harris-Foulkes estimate   =     -35.96526814 Ry
     estimated scf accuracy    <       0.00000052 Ry

     iteration #  9     ecut=    50.00 Ry     beta= 0.31
     Davidson diagonalization with overlap
     ethr =  6.49E-09,  avg # of iterations =  2.0

     negative rho (up, down):  1.990E-03 0.000E+00

     total cpu time spent up to now is        5.8 secs

     End of self-consistent calculation

          k = 0.0000 0.0000 0.0000 (  2499 PWs)   bands (ev):

   -23.5340 -10.5617  -7.4125  -7.4125   0.3427

     occupation numbers 
     1.0000   1.0000   1.0000   1.0000   0.0000

     the Fermi energy is    -5.4904 ev

!    total energy              =     -35.96527923 Ry
     Harris-Foulkes estimate   =     -35.96526795 Ry
     estimated scf accuracy    <          6.7E-09 Ry

     convergence has been achieved in   9 iterations

     Using ACE for calculation of exact exchange

     total energy              =     -35.96558611 Ry
     Harris-Foulkes estimate   =     -35.96557483 Ry
     est. exchange err (dexx)  =       0.00030688 Ry
     - averaged Fock potential =       2.91516459 Ry
     + Fock energy (ACE)       =      -1.45703370 Ry

     EXX: now go back to refine exchange calculation

     total cpu time spent up to now is        5.9 secs

     Self-consistent Calculation

     iteration #  1     ecut=    50.00 Ry     beta= 0.31
     Davidson diagonalization with overlap
     ethr =  6.49E-09,  avg # of iterations =  4.0

     negative rho (up, down):  1.990E-03 0.000E+00

     total cpu time spent up to now is        6.0 secs

     total energy              =     -35.96561478 Ry
     Harris-Foulkes estimate   =     -35.96561914 Ry
     estimated scf accuracy    <       0.00001191 Ry

     iteration #  2     ecut=    50.00 Ry     beta= 0.31
     Davidson diagonalization with overlap
     ethr =  1.49E-07,  avg # of iterations =  1.0

     negative rho (up, down):  1.990E-03 0.000E+00

     total cpu time spent up to now is        6.1 secs

     total energy              =     -35.96561307 Ry
     Harris-Foulkes estimate   =     -35.96561520 Ry
     estimated scf accuracy    <       0.00000370 Ry

     iteration #  3     ecut=    50.00 Ry     beta= 0.31
     Davidson diagonalization with overlap
     ethr =  4.62E-08,  avg # of iterations =  2.0

     negative rho (up, down):  1.990E-03 0.000E+00

     total cpu time spent up to now is        6.3 secs

     total energy              =     -35.96561337 Ry
     Harris-Foulkes estimate   =     -35.96561349 Ry
     estimated scf accuracy    <       0.00000022 Ry

     iteration #  4     ecut=    50.00 Ry     beta= 0.31
     Davidson diagonalization with overlap
     ethr =  2.78E-09,  avg # of iterations =  2.0

     negative rho (up, down):  1.990E-03 0.000E+00

     total cpu time spent up to now is        6.4 secs

     total energy              =     -35.96561343 Ry
     Harris-Foulkes estimate   =     -35.96561345 Ry
     estimated scf accuracy    <       0.00000008 Ry

     iteration #  5     ecut=    50.00 Ry     beta= 0.31
     Davidson diagonalization with overlap
     ethr =  9.79E-10,  avg # of iterations =  1.0

     negative rho (up, down):  1.990E-03 0.000E+00

     total cpu time spent up to now is        6.5 secs

     total energy              =     -35.96561341 Ry
     Harris-Foulkes estimate   =     -35.96561343 Ry
     estimated scf accuracy    <       0.00000003 Ry

     iteration #  6     ecut=    50.00 Ry     beta= 0.31
     Davidson diagonalization with overlap
     ethr =  3.68E-10,  avg # of iterations =  2.0

     negative rho (up, down):  1.990E-03 0.000E+00

     total cpu time spent up to now is        6.6 secs

     End of self-consistent calculation

          k = 0.0000 0.0000 0.0000 (  2499 PWs)   bands (ev):

   -23.5547 -10.5798  -7.4351  -7.4351   0.3453

     occupation numbers 
     1.0000   1.0000   1.0000   1.0000   0.0000

     the Fermi energy is    -5.4936 ev

!    total energy              =     -35.96561342 Ry
     Harris-Foulkes estimate   =     -35.96561342 Ry
     estimated scf accuracy    <          4.4E-09 Ry

     convergence has been achieved in   6 iterations

     Using ACE for calculation of exact exchange

     total energy              =     -35.96561696 Ry
     Harris-Foulkes estimate   =     -35.96561696 Ry
     est. exchange err (dexx)  =       0.00000354 Ry
     - averaged Fock potential =       2.91390402 Ry
     + Fock energy (ACE)       =      -1.45687386 Ry

     EXX: now go back to refine exchange calculation

     total cpu time spent up to now is        6.7 secs

     Self-consistent Calculation

     iteration #  1     ecut=    50.00 Ry     beta= 0.31
     Davidson diagonalization with overlap
     ethr =  3.68E-10,  avg # of iterations =  4.0

     negative rho (up, down):  1.990E-03 0.000E+00

     total cpu time spent up to now is        6.9 secs

     total energy              =     -35.96561763 Ry
     Harris-Foulkes estimate   =     -35.96561770 Ry
     estimated scf accuracy    <       0.00000021 Ry

     iteration #  2     ecut=    50.00 Ry     beta= 0.31
     Davidson diagonalization with overlap
     ethr =  2.64E-09,  avg # of iterations =  1.0

     negative rho (up, down):  1.990E-03 0.000E+00

     total cpu time spent up to now is        7.0 secs

     total energy              =     -35.96561760 Ry
     Harris-Foulkes estimate   =     -35.96561764 Ry
     estimated scf accuracy    <       0.00000008 Ry

     iteration #  3     ecut=    50.00 Ry     beta= 0.31
     Davidson diagonalization with overlap
     ethr =  9.58E-10,  avg # of iterations =  2.0

     negative rho (up, down):  1.990E-03 0.000E+00

     total cpu time spent up to now is        7.1 secs

     End of self-consistent calculation

          k = 0.0000 0.0000 0.0000 (  2499 PWs)   bands (ev):

   -23.5571 -10.5813  -7.4379  -7.4379   0.3448

     occupation numbers 
     1.0000   1.0000   1.0000   1.0000   0.0000

     the Fermi energy is    -5.4946 ev

!    total energy              =     -35.96561761 Ry
     Harris-Foulkes estimate   =     -35.96561761 Ry
     estimated scf accuracy    <          3.2E-09 Ry

     convergence has been achieved in   3 iterations

     Using ACE for calculation of exact exchange

     total energy              =     -35.96561775 Ry
     Harris-Foulkes estimate   =     -35.96561775 Ry
     est. exchange err (dexx)  =       0.00000014 Ry
     - averaged Fock potential =       2.91372924 Ry
     + Fock energy (ACE)       =      -1.45685552 Ry

     EXX: now go back to refine exchange calculation

     total cpu time spent up to now is        7.3 secs

     Self-consistent Calculation

     iteration #  1     ecut=    50.00 Ry     beta= 0.31
     Davidson diagonalization with overlap
     ethr =  9.58E-10,  avg # of iterations =  2.0

     negative rho (up, down):  1.990E-03 0.000E+00

     total cpu time spent up to now is        7.5 secs

     total energy              =     -35.96561779 Ry
     Harris-Foulkes estimate   =     -35.96561780 Ry
     estimated scf accuracy    <       0.00000002 Ry

     iteration #  2     ecut=    50.00 Ry     beta= 0.31
     Davidson diagonalization with overlap
     ethr =  2.99E-10,  avg # of iterations =  1.0

     negative rho (up, down):  1.990E-03 0.000E+00

     total cpu time spent up to now is        7.6 secs

     End of self-consistent calculation

          k = 0.0000 0.0000 0.0000 (  2499 PWs)   bands (ev):

   -23.5570 -10.5811  -7.4380  -7.4380   0.3448

     occupation numbers 
     1.0000   1.0000   1.0000   1.0000   0.0000

     the Fermi energy is    -5.4946 ev

!    total energy              =     -35.96561779 Ry
     Harris-Foulkes estimate   =     -35.96561779 Ry
     estimated scf accuracy    <          5.2E-09 Ry

     convergence has been achieved in   2 iterations

     Using ACE for calculation of exact exchange

     total energy              =     -35.96561780 Ry
     Harris-Foulkes estimate   =     -35.96561780 Ry
     est. exchange err (dexx)  =       0.00000001 Ry
     - averaged Fock potential =       2.91371836 Ry
     + Fock energy (ACE)       =      -1.45686285 Ry

     EXX: now go back to refine exchange calculation

     total cpu time spent up to now is        7.9 secs

     Self-consistent Calculation

     iteration #  1     ecut=    50.00 Ry     beta= 0.31
     Davidson diagonalization with overlap
     ethr =  2.99E-10,  avg # of iterations =  2.0

     Threshold (ethr) on eigenvalues was too large:
     Diagonalizing with lowered threshold

     Davidson diagonalization with overlap
     ethr =  1.37E-11,  avg # of iterations =  1.0

     negative rho (up, down):  1.990E-03 0.000E+00

     total cpu time spent up to now is        8.1 secs

     End of self-consistent calculation

          k = 0.0000 0.0000 0.0000 (  2499 PWs)   bands (ev):

   -23.5573 -10.5813  -7.4382  -7.4382   0.3448

     occupation numbers 
     1.0000   1.0000   1.0000   1.0000   0.0000

     the Fermi energy is    -5.4947 ev

!    total energy              =     -35.96561780 Ry
     Harris-Foulkes estimate   =     -35.96561780 Ry
     estimated scf accuracy    <          9.5E-10 Ry

     convergence has been achieved in   1 iterations

     Using ACE for calculation of exact exchange

!!   total energy              =     -35.96561780 Ry
     Harris-Foulkes estimate   =     -35.96561780 Ry
     est. exchange err (dexx)  =          4.6E-10 Ry
     - averaged Fock potential =       2.91372027 Ry
     + Fock energy (ACE)       =      -1.45685742 Ry

     EXX self-consistency reached

     negative rho (up, down):  1.990E-03 0.000E+00

     Forces acting on atoms (cartesian axes, Ry/au):

     atom    1 type  1   force =     0.00000000    0.00000000    0.00000000
     atom    2 type  2   force =     0.00000000    0.00000000    0.00000000
     The non-local contrib.  to forces
     atom    1 type  1   force =     0.00000000    0.00000000    0.00000000
     atom    2 type  2   force =    -0.00000000   -0.00000000    0.00000000
     The ionic contribution  to forces
     atom    1 type  1   force =    -0.00000144    0.00000083    0.00000000
     atom    2 type  2   force =     0.00000144   -0.00000083   -0.00000000
     The local contribution  to forces
     atom    1 type  1   force =     0.00000146   -0.00000084    0.00000001
     atom    2 type  2   force =    -0.00000168    0.00000097    0.00000001
     The core correction contribution to forces
     atom    1 type  1   force =     0.00000002   -0.00000001    0.00000000
     atom    2 type  2   force =     0.00000001   -0.00000000   -0.00000000
     The Hubbard contrib.    to forces
     atom    1 type  1   force =     0.00000000    0.00000000    0.00000000
     atom    2 type  2   force =     0.00000000    0.00000000    0.00000000
     The SCF correction term to forces
     atom    1 type  1   force =    -0.00000000    0.00000000   -0.00000001
     atom    2 type  2   force =     0.00000000   -0.00000000   -0.00000002

     Total force =     0.000000     Total SCF correction =     0.000000


     Computing stress (Cartesian axis) and pressure


     negative rho (up, down):  1.990E-03 0.000E+00
     Message from routine exx_stress:
     USPP stress not tested
          total   stress  (Ry/bohr**3)                   (kbar)     P=   17.65
   0.00000317   0.00000000   0.00000000          0.47      0.00      0.00
   0.00000000   0.00000317  -0.00000000          0.00      0.47     -0.00
  -0.00000000   0.00000000   0.00035365         -0.00      0.00     52.02

     kinetic stress (kbar)   2008.56      0.00     -0.00
                                0.00   2008.56      0.00
                               -0.00      0.00   1918.17

     local   stress (kbar) -39642.05     -0.00      0.00
                               -0.00 -39642.05     -0.00
                                0.00     -0.00  39672.01

     nonloc. stress (kbar)    -29.62      0.00      0.00
                                0.00    -29.62      0.00
                                0.00      0.00     -6.43

     hartree stress (kbar)  19010.29      0.00     -0.00
                                0.00  19010.29      0.00
                               -0.00      0.00 -18581.50

     exc-cor stress (kbar)   -145.50      0.00     -0.00
                                0.00   -145.50      0.00
                               -0.00      0.00   -152.64

     corecor stress (kbar)   -192.58     -0.00      0.00
                               -0.00   -192.58      0.00
                                0.00      0.00   -182.90

     ewald   stress (kbar)  19099.96      0.00     -0.00
                                0.00  19099.96      0.00
                               -0.00      0.00 -22557.25

     hubbard stress (kbar)      0.00      0.00      0.00
                                0.00      0.00      0.00
                                0.00      0.00      0.00

     london  stress (kbar)      0.00      0.00      0.00
                                0.00      0.00      0.00
                                0.00      0.00      0.00

     DFT-D3  stress (kbar)      0.00      0.00      0.00
                                0.00      0.00      0.00
                                0.00      0.00      0.00

     XDM     stress (kbar)      0.00      0.00      0.00
                                0.00      0.00      0.00
                                0.00      0.00      0.00

     dft-nl  stress (kbar)      0.00      0.00      0.00
                                0.00      0.00      0.00
                                0.00      0.00      0.00

     TS-vdW  stress (kbar)      0.00      0.00      0.00
                                0.00      0.00      0.00
                                0.00      0.00      0.00


     EXX     stress (kbar)   -108.59     -0.00      0.00
                                0.00   -108.59      0.00
                                0.00      0.00    -57.43



     Writing output data file hBN.save/
 
     init_run     :      0.18s CPU      0.32s WALL (       1 calls)
     electrons    :      3.30s CPU      5.58s WALL (       6 calls)
     forces       :      0.09s CPU      0.10s WALL (       1 calls)
     stress       :      0.17s CPU      0.18s WALL (       1 calls)

     Called by init_run:
     wfcinit      :      0.01s CPU      0.11s WALL (       1 calls)
     wfcinit:atom :      0.00s CPU      0.00s WALL (       1 calls)
     wfcinit:wfcr :      0.01s CPU      0.01s WALL (       1 calls)
     potinit      :      0.09s CPU      0.12s WALL (       1 calls)
     hinit0       :      0.07s CPU      0.07s WALL (       1 calls)

     Called by electrons:
     c_bands      :      0.26s CPU      0.84s WALL (      37 calls)
     sum_band     :      0.10s CPU      0.11s WALL (      37 calls)
     v_of_rho     :      1.23s CPU      1.26s WALL (      38 calls)
     v_h          :      0.01s CPU      0.02s WALL (      38 calls)
     v_xc         :      1.29s CPU      1.32s WALL (      40 calls)
     newd         :      0.06s CPU      0.07s WALL (      37 calls)
     PAW_pot      :      1.71s CPU      1.76s WALL (      38 calls)
     mix_rho      :      0.03s CPU      0.03s WALL (      37 calls)

     Called by c_bands:
     init_us_2    :      0.01s CPU      0.01s WALL (     111 calls)
     regterg      :      0.25s CPU      0.26s WALL (      37 calls)

     Called by sum_band:
     sum_band:bec :      0.00s CPU      0.00s WALL (      37 calls)
     addusdens    :      0.05s CPU      0.05s WALL (      37 calls)

     Called by *egterg:
     h_psi        :      0.12s CPU      0.13s WALL (     118 calls)
     s_psi        :      0.00s CPU      0.00s WALL (     118 calls)
     g_psi        :      0.00s CPU      0.00s WALL (      80 calls)
     rdiaghg      :      0.11s CPU      0.12s WALL (     111 calls)
     regterg:over :      0.01s CPU      0.02s WALL (      80 calls)
     regterg:upda :      0.00s CPU      0.00s WALL (      80 calls)
     regterg:last :      0.00s CPU      0.00s WALL (      41 calls)
     rdiaghg:chol :      0.01s CPU      0.01s WALL (     111 calls)
     rdiaghg:inve :      0.00s CPU      0.00s WALL (     111 calls)
     rdiaghg:para :      0.01s CPU      0.01s WALL (     222 calls)

     Called by h_psi:
     h_psi:pot    :      0.11s CPU      0.12s WALL (     118 calls)
     h_psi:calbec :      0.01s CPU      0.01s WALL (     118 calls)
     vloc_psi     :      0.10s CPU      0.11s WALL (     118 calls)
     add_vuspsi   :      0.00s CPU      0.00s WALL (     118 calls)

     General routines
     calbec       :      0.01s CPU      0.01s WALL (     266 calls)
     fft          :      0.27s CPU      0.28s WALL (     355 calls)
     ffts         :      0.01s CPU      0.01s WALL (      37 calls)
     fftw         :      0.11s CPU      0.12s WALL (     717 calls)
     fftc         :      0.04s CPU      0.04s WALL (     130 calls)
     fftcw        :      0.01s CPU      0.01s WALL (      71 calls)
 
     Parallel routines
     fft_scatt_xy :      0.02s CPU      0.02s WALL (    1310 calls)
     fft_scatt_yz :      0.26s CPU      0.28s WALL (    1310 calls)

     EXX routines
     exx_grid     :      0.00s CPU      0.00s WALL (       1 calls)
     exxinit      :      0.62s CPU      0.62s WALL (       6 calls)
     vexx         :      0.11s CPU      0.12s WALL (       6 calls)
     matcalc      :      0.00s CPU      0.00s WALL (     100 calls)
     aceupdate    :      0.00s CPU      0.00s WALL (       6 calls)
     vexxace      :      0.00s CPU      0.01s WALL (      83 calls)
     aceinit      :      0.11s CPU      0.12s WALL (       6 calls)

     EXX+US  routines
     becxx        :      0.00s CPU      0.00s WALL (       6 calls)
     addusxx      :      0.02s CPU      0.02s WALL (     120 calls)
     newdxx       :      0.02s CPU      0.02s WALL (     120 calls)
     qvan_init    :      0.01s CPU      0.01s WALL (       6 calls)
     nlxx_pot     :      0.00s CPU      0.00s WALL (      30 calls)

     EXX+PAW routines
     PAW_newdxx   :      0.00s CPU      0.01s WALL (     120 calls)

     PAW routines
     PAW_pot      :      1.71s CPU      1.76s WALL (      38 calls)
     PAW_symme    :      0.00s CPU      0.00s WALL (      74 calls)
 
     PWSCF        :      5.51s CPU      9.58s WALL

 
   This run was terminated on:  12: 1:11  14Jan2021            

=------------------------------------------------------------------------------=
   JOB DONE.
=------------------------------------------------------------------------------=
