
     Program PWSCF v.6.4.1 starts on 13Jan2021 at 18:58:24 

     This program is part of the open-source Quantum ESPRESSO suite
     for quantum simulation of materials; please cite
         "P. Giannozzi et al., J. Phys.:Condens. Matter 21 395502 (2009);
         "P. Giannozzi et al., J. Phys.:Condens. Matter 29 465901 (2017);
          URL http://www.quantum-espresso.org", 
     in publications or presentations arising from this work. More details at
     http://www.quantum-espresso.org/quote

     Parallel version (MPI), running on    16 processors

     MPI processes distributed on     1 nodes
     R & G space division:  proc/nbgrp/npool/nimage =      16
     Waiting for input...
     Reading input from standard input

     Current dimensions of program PWSCF are:
     Max number of different atomic species (ntypx) = 10
     Max number of k-points (npk) =  40000
     Max angular momentum in pseudopotentials (lmaxx) =  3
               file N.pbe-n-kjpaw_psl.1.0.0.UPF: wavefunction(s)  2S renormalized

     Subspace diagonalization in iterative solution of the eigenvalue problem:
     one sub-group per band group will be used
     scalapack distributed-memory algorithm (size of sub-group:  2*  2 procs)

 
     Parallelization info
     --------------------
     sticks:   dense  smooth     PW     G-vecs:    dense   smooth      PW
     Min          77      77     19                17497    17497    2189
     Max          78      78     20                17530    17530    2206
     Sum        1237    1237    313               280145   280145   35127
 


     bravais-lattice index     =            4
     lattice parameter (alat)  =       4.7319  a.u.
     unit-cell volume          =     733.0516 (a.u.)^3
     number of atoms/cell      =            2
     number of atomic types    =            2
     number of electrons       =         8.00
     number of Kohn-Sham states=            4
     kinetic-energy cutoff     =     200.0000  Ry
     charge density cutoff     =     800.0000  Ry
     convergence threshold     =      1.0E-08
     mixing beta               =       0.7000
     number of iterations used =            8  plain     mixing
     Exchange-correlation      = SLA PW PBX PBC ( 1  4  3  4 0 0)
     Using LIBXC version       =    4   3   4
     nstep                     =           50


     celldm(1)=   4.731874  celldm(2)=   0.000000  celldm(3)=   7.989220
     celldm(4)=   0.000000  celldm(5)=   0.000000  celldm(6)=   0.000000

     crystal axes: (cart. coord. in units of alat)
               a(1) = (   1.000000   0.000000   0.000000 )  
               a(2) = (  -0.500000   0.866025   0.000000 )  
               a(3) = (   0.000000   0.000000   7.989220 )  

     reciprocal axes: (cart. coord. in units 2 pi/alat)
               b(1) = (  1.000000  0.577350  0.000000 )  
               b(2) = (  0.000000  1.154701  0.000000 )  
               b(3) = (  0.000000  0.000000  0.125169 )  


     PseudoPot. # 1 for B  read from file:
     ./pseudo/B.pbe-n-kjpaw_psl.1.0.0.UPF
     MD5 check sum: 8c825a5969375aca5c2c6ad5945b3059
     Pseudo is Projector augmented-wave + core cor, Zval =  3.0
     Generated using "atomic" code by A. Dal Corso v.6.3
     Shape of augmentation charge: PSQ
     Using radial grid of 1059 points,  4 beta functions with: 
                l(1) =   0
                l(2) =   0
                l(3) =   1
                l(4) =   1
     Q(r) pseudized with 0 coefficients 


     PseudoPot. # 2 for N  read from file:
     ./pseudo/N.pbe-n-kjpaw_psl.1.0.0.UPF
     MD5 check sum: 14c48229446f9f2d411169a3abcbc3fa
     Pseudo is Projector augmented-wave + core cor, Zval =  5.0
     Generated using "atomic" code by A. Dal Corso v.6.3
     Shape of augmentation charge: PSQ
     Using radial grid of 1085 points,  4 beta functions with: 
                l(1) =   0
                l(2) =   0
                l(3) =   1
                l(4) =   1
     Q(r) pseudized with 0 coefficients 


     atomic species   valence    mass     pseudopotential
        B              3.00    10.00000     B ( 1.00)
        N              5.00    14.00000     N ( 1.00)

     12 Sym. Ops. (no inversion) found


                                    s                        frac. trans.

      isym =  1     identity                                     

 cryst.   s( 1) = (     1          0          0      )
                  (     0          1          0      )
                  (     0          0          1      )

 cart.    s( 1) = (  1.0000000  0.0000000  0.0000000 )
                  (  0.0000000  1.0000000  0.0000000 )
                  (  0.0000000  0.0000000  1.0000000 )


      isym =  2     180 deg rotation - cart. axis [0,1,0]        

 cryst.   s( 2) = (    -1          0          0      )
                  (     1          1          0      )
                  (     0          0         -1      )

 cart.    s( 2) = ( -1.0000000  0.0000000  0.0000000 )
                  (  0.0000000  1.0000000  0.0000000 )
                  (  0.0000000  0.0000000 -1.0000000 )


      isym =  3     120 deg rotation - cryst. axis [0,0,1]       

 cryst.   s( 3) = (     0          1          0      )
                  (    -1         -1          0      )
                  (     0          0          1      )

 cart.    s( 3) = ( -0.5000000 -0.8660254  0.0000000 )
                  (  0.8660254 -0.5000000  0.0000000 )
                  (  0.0000000  0.0000000  1.0000000 )


      isym =  4     120 deg rotation - cryst. axis [0,0,-1]      

 cryst.   s( 4) = (    -1         -1          0      )
                  (     1          0          0      )
                  (     0          0          1      )

 cart.    s( 4) = ( -0.5000000  0.8660254  0.0000000 )
                  ( -0.8660254 -0.5000000  0.0000000 )
                  (  0.0000000  0.0000000  1.0000000 )


      isym =  5     180 deg rotation - cryst. axis [1,-1,0]      

 cryst.   s( 5) = (     0         -1          0      )
                  (    -1          0          0      )
                  (     0          0         -1      )

 cart.    s( 5) = (  0.5000000 -0.8660254  0.0000000 )
                  ( -0.8660254 -0.5000000  0.0000000 )
                  (  0.0000000  0.0000000 -1.0000000 )


      isym =  6     180 deg rotation - cryst. axis [2,1,0]       

 cryst.   s( 6) = (     1          1          0      )
                  (     0         -1          0      )
                  (     0          0         -1      )

 cart.    s( 6) = (  0.5000000  0.8660254  0.0000000 )
                  (  0.8660254 -0.5000000  0.0000000 )
                  (  0.0000000  0.0000000 -1.0000000 )


      isym =  7     inv. 180 deg rotation - cart. axis [0,0,1]   

 cryst.   s( 7) = (     1          0          0      )
                  (     0          1          0      )
                  (     0          0         -1      )

 cart.    s( 7) = (  1.0000000  0.0000000  0.0000000 )
                  (  0.0000000  1.0000000  0.0000000 )
                  (  0.0000000  0.0000000 -1.0000000 )


      isym =  8     inv. 180 deg rotation - cart. axis [1,0,0]   

 cryst.   s( 8) = (    -1          0          0      )
                  (     1          1          0      )
                  (     0          0          1      )

 cart.    s( 8) = ( -1.0000000  0.0000000  0.0000000 )
                  (  0.0000000  1.0000000  0.0000000 )
                  (  0.0000000  0.0000000  1.0000000 )


      isym =  9     inv.  60 deg rotation - cryst. axis [0,0,1]  

 cryst.   s( 9) = (    -1         -1          0      )
                  (     1          0          0      )
                  (     0          0         -1      )

 cart.    s( 9) = ( -0.5000000  0.8660254  0.0000000 )
                  ( -0.8660254 -0.5000000  0.0000000 )
                  (  0.0000000  0.0000000 -1.0000000 )


      isym = 10     inv.  60 deg rotation - cryst. axis [0,0,-1] 

 cryst.   s(10) = (     0          1          0      )
                  (    -1         -1          0      )
                  (     0          0         -1      )

 cart.    s(10) = ( -0.5000000 -0.8660254  0.0000000 )
                  (  0.8660254 -0.5000000  0.0000000 )
                  (  0.0000000  0.0000000 -1.0000000 )


      isym = 11     inv. 180 deg rotation - cryst. axis [0,1,0]  

 cryst.   s(11) = (     1          1          0      )
                  (     0         -1          0      )
                  (     0          0          1      )

 cart.    s(11) = (  0.5000000  0.8660254  0.0000000 )
                  (  0.8660254 -0.5000000  0.0000000 )
                  (  0.0000000  0.0000000  1.0000000 )


      isym = 12     inv. 180 deg rotation - cryst. axis [1,1,0]  

 cryst.   s(12) = (     0         -1          0      )
                  (    -1          0          0      )
                  (     0          0          1      )

 cart.    s(12) = (  0.5000000 -0.8660254  0.0000000 )
                  ( -0.8660254 -0.5000000  0.0000000 )
                  (  0.0000000  0.0000000  1.0000000 )


     point group D_3h (-62m)
     there are  6 classes
     the character table:

       E     2C3   3C2   s_h   2S3   3s_v 
A'_1   1.00  1.00  1.00  1.00  1.00  1.00
A'_2   1.00  1.00 -1.00  1.00  1.00 -1.00
E'     2.00 -1.00  0.00  2.00 -1.00  0.00
A''1   1.00  1.00  1.00 -1.00 -1.00 -1.00
A''2   1.00  1.00 -1.00 -1.00 -1.00  1.00
E''    2.00 -1.00  0.00 -2.00  1.00  0.00

     the symmetry operations in each class and the name of the first element:

     E        1
          identity                                               
     2C3      3    4
          120 deg rotation - cryst. axis [0,0,1]                 
     3C2      2    6    5
          180 deg rotation - cart. axis [0,1,0]                  
     s_h      7
          inv. 180 deg rotation - cart. axis [0,0,1]             
     2S3      9   10
          inv.  60 deg rotation - cryst. axis [0,0,1]            
     3s_v     8   11   12
          inv. 180 deg rotation - cart. axis [1,0,0]             

   Cartesian axes

     site n.     atom                  positions (alat units)
         1           B   tau(   1) = (   0.5000000   0.2886751   0.0000000  )
         2           N   tau(   2) = (  -0.0000000   0.5773503   0.0000000  )

   Crystallographic axes

     site n.     atom                  positions (cryst. coord.)
         1           B   tau(   1) = (  0.6666667  0.3333333  0.0000000  )
         2           N   tau(   2) = (  0.3333333  0.6666667  0.0000000  )

     number of k points=     1
                       cart. coord. in units 2pi/alat
        k(    1) = (   0.0000000   0.0000000   0.0000000), wk =   2.0000000

                       cryst. coord.
        k(    1) = (   0.0000000   0.0000000   0.0000000), wk =   2.0000000

     Dense  grid:   280145 G-vectors     FFT dimensions: (  45,  45, 360)

     Dynamical RAM for                 wfc:       0.13 MB

     Dynamical RAM for     wfc (w. buffer):       0.13 MB

     Dynamical RAM for           str. fact:       0.53 MB

     Dynamical RAM for           local pot:       0.00 MB

     Dynamical RAM for          nlocal pot:       0.53 MB

     Dynamical RAM for                qrad:       0.98 MB

     Dynamical RAM for          rho,v,vnew:       1.87 MB

     Dynamical RAM for               rhoin:       0.62 MB

     Dynamical RAM for            rho*nmix:       4.27 MB

     Dynamical RAM for           G-vectors:       1.13 MB

     Dynamical RAM for          h,s,v(r/c):       0.00 MB

     Dynamical RAM for          <psi|beta>:       0.00 MB

     Dynamical RAM for                 psi:       0.53 MB

     Dynamical RAM for                hpsi:       0.53 MB

     Dynamical RAM for                spsi:       0.53 MB

     Dynamical RAM for      wfcinit/wfcrot:       0.54 MB

     Dynamical RAM for           addusdens:      11.75 MB

     Dynamical RAM for          addusforce:      12.68 MB

     Estimated static dynamical RAM per process >      12.65 MB

     Estimated max dynamical RAM per process >      25.34 MB

     Estimated total dynamical RAM >     405.40 MB

     Initial potential from superposition of free atoms

     starting charge    7.99971, renormalised to    8.00000

     negative rho (up, down):  2.307E-05 0.000E+00
     Starting wfcs are    8 randomized atomic wfcs
     Checking if some PAW data can be deallocated... 
       PAW data deallocated on    8 nodes for type:  1
       PAW data deallocated on    8 nodes for type:  2

     total cpu time spent up to now is        2.8 secs

     Self-consistent Calculation

     iteration #  1     ecut=   200.00 Ry     beta= 0.70
     Davidson diagonalization with overlap
     ethr =  1.00E-02,  avg # of iterations =  2.0

     negative rho (up, down):  1.871E-05 0.000E+00

     total cpu time spent up to now is        3.2 secs

     total energy              =     -39.20889362 Ry
     Harris-Foulkes estimate   =     -39.61209455 Ry
     estimated scf accuracy    <       0.62140054 Ry

     iteration #  2     ecut=   200.00 Ry     beta= 0.70
     Davidson diagonalization with overlap
     ethr =  7.77E-03,  avg # of iterations =  2.0

     negative rho (up, down):  1.828E-05 0.000E+00

     total cpu time spent up to now is        3.6 secs

     total energy              =     -39.35758607 Ry
     Harris-Foulkes estimate   =     -39.51515880 Ry
     estimated scf accuracy    <       0.30681328 Ry

     iteration #  3     ecut=   200.00 Ry     beta= 0.70
     Davidson diagonalization with overlap
     ethr =  3.84E-03,  avg # of iterations =  2.0

     negative rho (up, down):  2.531E-05 0.000E+00

     total cpu time spent up to now is        3.9 secs

     total energy              =     -39.41968062 Ry
     Harris-Foulkes estimate   =     -39.41989580 Ry
     estimated scf accuracy    <       0.00421868 Ry

     iteration #  4     ecut=   200.00 Ry     beta= 0.70
     Davidson diagonalization with overlap
     ethr =  5.27E-05,  avg # of iterations =  3.0

     negative rho (up, down):  2.642E-05 0.000E+00

     total cpu time spent up to now is        4.3 secs

     total energy              =     -39.42168709 Ry
     Harris-Foulkes estimate   =     -39.42214370 Ry
     estimated scf accuracy    <       0.00116332 Ry

     iteration #  5     ecut=   200.00 Ry     beta= 0.70
     Davidson diagonalization with overlap
     ethr =  1.45E-05,  avg # of iterations =  1.0

     negative rho (up, down):  2.789E-05 0.000E+00

     total cpu time spent up to now is        4.6 secs

     total energy              =     -39.42176414 Ry
     Harris-Foulkes estimate   =     -39.42177736 Ry
     estimated scf accuracy    <       0.00013392 Ry

     iteration #  6     ecut=   200.00 Ry     beta= 0.70
     Davidson diagonalization with overlap
     ethr =  1.67E-06,  avg # of iterations =  3.0

     negative rho (up, down):  2.824E-05 0.000E+00

     total cpu time spent up to now is        5.0 secs

     total energy              =     -39.42180021 Ry
     Harris-Foulkes estimate   =     -39.42180552 Ry
     estimated scf accuracy    <       0.00001081 Ry

     iteration #  7     ecut=   200.00 Ry     beta= 0.70
     Davidson diagonalization with overlap
     ethr =  1.35E-07,  avg # of iterations =  2.0

     negative rho (up, down):  2.830E-05 0.000E+00

     total cpu time spent up to now is        5.3 secs

     total energy              =     -39.42180208 Ry
     Harris-Foulkes estimate   =     -39.42180208 Ry
     estimated scf accuracy    <       0.00000004 Ry

     iteration #  8     ecut=   200.00 Ry     beta= 0.70
     Davidson diagonalization with overlap
     ethr =  4.79E-10,  avg # of iterations =  3.0

     negative rho (up, down):  2.834E-05 0.000E+00

     total cpu time spent up to now is        5.7 secs

     End of self-consistent calculation

          k = 0.0000 0.0000 0.0000 ( 35127 PWs)   bands (ev):

   -21.8739  -9.7205  -5.3053  -5.3053

     occupation numbers 
     1.0000   1.0000   1.0000   1.0000

     highest occupied level (ev):    -5.3053

!    total energy              =     -39.42180212 Ry
     Harris-Foulkes estimate   =     -39.42180212 Ry
     estimated scf accuracy    <          3.8E-09 Ry

     total all-electron energy =      -158.959948 Ry

     The total energy is the sum of the following terms:

     one-electron contribution =    -219.94132410 Ry
     hartree contribution      =     111.97454887 Ry
     xc contribution           =      -8.93277167 Ry
     ewald contribution        =      90.60955781 Ry
     one-center paw contrib.   =     -13.13181303 Ry
      -> PAW hartree energy AE =       2.92146719 Ry
      -> PAW hartree energy PS =      -2.93294586 Ry
      -> PAW xc energy AE      =      -7.52746830 Ry
      -> PAW xc energy PS      =       2.34831556 Ry
      -> total E_H with PAW    =     111.96307020 Ry
      -> total E_XC with PAW   =     -14.11192441 Ry

     convergence has been achieved in   8 iterations

     negative rho (up, down):  2.834E-05 0.000E+00

     Forces acting on atoms (cartesian axes, Ry/au):

     atom    1 type  1   force =     0.00000000    0.00000000    0.00000000
     atom    2 type  2   force =     0.00000000    0.00000000    0.00000000
     The non-local contrib.  to forces
     atom    1 type  1   force =     0.00000000    0.00000000    0.00000000
     atom    2 type  2   force =     0.00000000    0.00000000    0.00000000
     The ionic contribution  to forces
     atom    1 type  1   force =    -0.00000155    0.00000090   -0.00000000
     atom    2 type  2   force =     0.00000155   -0.00000090   -0.00000000
     The local contribution  to forces
     atom    1 type  1   force =     0.00000031   -0.00000018    0.00000000
     atom    2 type  2   force =     0.00000350   -0.00000202    0.00000000
     The core correction contribution to forces
     atom    1 type  1   force =    -0.00000000    0.00000000    0.00000000
     atom    2 type  2   force =    -0.00000009    0.00000005   -0.00000000
     The Hubbard contrib.    to forces
     atom    1 type  1   force =     0.00000000    0.00000000    0.00000000
     atom    2 type  2   force =     0.00000000    0.00000000    0.00000000
     The SCF correction term to forces
     atom    1 type  1   force =    -0.00000000    0.00000000   -0.00000000
     atom    2 type  2   force =    -0.00000000    0.00000000   -0.00000000

     Total force =     0.000000     Total SCF correction =     0.000000

     BFGS Geometry Optimization

     bfgs converged in   1 scf cycles and   0 bfgs steps
     (criteria: energy <  1.0E-04 Ry, force <  1.0E-03 Ry/Bohr)

     End of BFGS Geometry Optimization

     Final energy   =     -39.4218021158 Ry
Begin final coordinates

ATOMIC_POSITIONS (crystal)
B        0.666666700   0.333333300   0.000000000
N        0.333333300   0.666666700   0.000000000
End final coordinates



     Writing output data file hBN.save/
 
     init_run     :      1.69s CPU      1.75s WALL (       1 calls)
     electrons    :      2.69s CPU      2.85s WALL (       1 calls)
     forces       :      0.73s CPU      0.74s WALL (       1 calls)

     Called by init_run:
     wfcinit      :      0.02s CPU      0.05s WALL (       1 calls)
     wfcinit:atom :      0.00s CPU      0.00s WALL (       1 calls)
     wfcinit:wfcr :      0.02s CPU      0.04s WALL (       1 calls)
     potinit      :      0.48s CPU      0.49s WALL (       1 calls)
     hinit0       :      0.66s CPU      0.67s WALL (       1 calls)

     Called by electrons:
     c_bands      :      0.29s CPU      0.30s WALL (       8 calls)
     sum_band     :      0.30s CPU      0.33s WALL (       8 calls)
     v_of_rho     :      1.64s CPU      1.66s WALL (       9 calls)
     v_h          :      0.02s CPU      0.03s WALL (       9 calls)
     v_xc         :      1.79s CPU      1.81s WALL (      10 calls)
     newd         :      0.27s CPU      0.31s WALL (       9 calls)
     PAW_pot      :      0.37s CPU      0.38s WALL (       9 calls)
     mix_rho      :      0.05s CPU      0.06s WALL (       8 calls)

     Called by c_bands:
     init_us_2    :      0.01s CPU      0.01s WALL (      17 calls)
     cegterg      :      0.27s CPU      0.28s WALL (       8 calls)

     Called by sum_band:
     sum_band:bec :      0.00s CPU      0.00s WALL (       8 calls)
     addusdens    :      0.19s CPU      0.21s WALL (       8 calls)

     Called by *egterg:
     h_psi        :      0.25s CPU      0.27s WALL (      27 calls)
     s_psi        :      0.00s CPU      0.00s WALL (      27 calls)
     g_psi        :      0.00s CPU      0.00s WALL (      18 calls)
     cdiaghg      :      0.02s CPU      0.03s WALL (      26 calls)
     cegterg:over :      0.01s CPU      0.01s WALL (      18 calls)
     cegterg:upda :      0.01s CPU      0.01s WALL (      18 calls)
     cegterg:last :      0.00s CPU      0.00s WALL (       8 calls)
     cdiaghg:chol :      0.00s CPU      0.01s WALL (      26 calls)
     cdiaghg:inve :      0.00s CPU      0.00s WALL (      26 calls)
     cdiaghg:para :      0.00s CPU      0.01s WALL (      52 calls)

     Called by h_psi:
     h_psi:pot    :      0.25s CPU      0.27s WALL (      27 calls)
     h_psi:calbec :      0.01s CPU      0.01s WALL (      27 calls)
     vloc_psi     :      0.24s CPU      0.25s WALL (      27 calls)
     add_vuspsi   :      0.00s CPU      0.00s WALL (      27 calls)

     General routines
     calbec       :      0.01s CPU      0.01s WALL (      39 calls)
     fft          :      0.26s CPU      0.29s WALL (     110 calls)
     ffts         :      0.01s CPU      0.02s WALL (       8 calls)
     fftw         :      0.26s CPU      0.27s WALL (     244 calls)
 
     Parallel routines
     fft_scatt_xy :      0.04s CPU      0.05s WALL (     362 calls)
     fft_scatt_yz :      0.15s CPU      0.17s WALL (     362 calls)

     PAW routines
     PAW_pot      :      0.37s CPU      0.38s WALL (       9 calls)
     PAW_symme    :      0.04s CPU      0.04s WALL (      17 calls)
 
     PWSCF        :      6.06s CPU      6.88s WALL

 
   This run was terminated on:  18:58:31  13Jan2021            

=------------------------------------------------------------------------------=
   JOB DONE.
=------------------------------------------------------------------------------=
