Siesta Version  : v4.1-b4
Architecture    : unknown
Compiler version: ifort (IFORT) 18.0.3 20180410
Compiler flags  : mpifort -fPIC -O2 -xCore-AVX2 -ftz -fp-speculation=safe -fp-model source
PP flags        : -DFC_HAVE_ABORT -DMPI -DCDF -I/cvmfs/soft.computecanada.ca/easybuild/softwaree/2017/avx2/Compiler/intel2018.3/netcdf-fortran/4.4.4/include
Libraries       :  -Wl,-Bstatic -Wl,--start-group -lmkl_scalapack_lp64 -lmkl_blacs_openmpi_lp644 -lmkl_intel_lp64 -lmkl_sequential -lmkl_core -Wl,--end-group -Wl,-Bdynamic -lnetcdff
PARALLEL version
NetCDF support

* Running on 16 nodes in parallel
>> Start of run:  19-NOV-2020  11:54:43

                           ***********************       
                           *  WELCOME TO SIESTA  *       
                           ***********************       

reinit: Reading from standard input
reinit: Dumped input in INPUT_TMP.79508
************************** Dump of input data file ****************************
	SystemName       graphene
SystemLabel      graphene
NumberOfAtoms    2
NumberOfSpecies  1
%block ChemicalSpeciesLabel
 1   6   C
%endblock ChemicalSpeciesLabel
LatticeConstant     2.46 Ang
%block LatticeVectors
    0.866025    0.500000    0.000000
    0.866025   -0.500000    0.000000
    0.000000    0.000000    20.00000
%endblock LatticeVectors
%block kgrid_Monkhorst_Pack
64    0   0   0.0
 0   64   0   0.0
 0    0   1   0.0
%endblock kgrid_Monkhorst_Pack
%block BandLines
1   0.6667 0.3333 0.000
70  0.0000 0.0000 0.000
70  0.5000 0.0000 0.000
70  0.6667 0.3333 0.000
%endblock BandLines
AtomicCoordinatesFormat  Ang
BandlinesScale	ReciprocalLatticeVectors
AtomicCoordinatesFormat NotScaledCartesianAng
AtomCoorFormatOut   NotScaledCartesianAng
%block AtomicCoordinatesAndAtomicSpecies
   1.4400000      0.0000000      0.0000000          1
   2.8800000      0.0000000      0.0000000          1
%endblock AtomicCoordinatesAndAtomicSpecies
PAO.BasisSize     DZP
PAO.EnergyShift   0.05 eV
MD.TypeOfRun      CG
MD.NumCGsteps     0
MaxSCFIterations  300
MD.MaxForceTol    0.05 eV/Ang
#XC.functional	  VDW
#XC.authors	  DRSLL
XC.functional	  GGA
XC.authors	  PBE
MeshCutoff        400.0 Ry #metal bulks need large meshcutoff/clusters, smaller
#UseSaveData    true
#MD.UseSaveXV	.true.
#MD.UseSaveCG	.true.
#DM.UseSaveDM	.true.
DM.MixingWeight   0.10
DM.NumberPulay    3
WriteCoorXmol	.true.
WriteMullikenPop 1
WriteBands .true.
WriteEigenvalues        .true.
#%block SuperCell
#8 0 0
#0 8 0
#0 0 1
#%endblock SuperCell
SolutionMethod diagon
ElectronicTemperature  20 meV
#ParallelOverK T
SpinPolarized         .false.          # Logical parameters are: yes or no
#%block PS.lmax
#   C   2
#   H   1
#   Al  2
#   Cx  2
#   Hx  1	
#%endblock PS.lmax
%block  ProjectedDensityOfStates
 -6.5 -2.5 0.05  700    eV
%endblock ProjectedDensityOfStates
#%block LocalDensityOfStates
#-4.25 -3.90 eV
#%endblock LocalDensityOfStates
#WriteWaveFunctions .true.
#%block WaveFuncKPoints
#0.000 0.000 0.000
#%endblock WaveFuncKPoints
#WriteCoorXmol          .true.
#WriteDenchar           .true.
#SaveRho			.true.
#SaveDeltaRho            .true.
#---------------------------------------------------------------------------------
#             Linear Optical  Responce
#---------------------------------------------------------------------------------
#OpticalCalculation  .True.   #This  enable the optical calculation
#Optical.EnergyMinimum    0 eV
#Optical.EnergyMaximum    6 eV
#%block Optical.Mesh
# 102 1 1
#%endblock Optical.Mesh
#Optical.Broaden  0.03 eV
#Optical.PolarizationType polarized
#%block Optical.Vector
# 1.0 0.0 0.0
#%endblock Optical.Vector
# polaraized ( the optical vector defined  the direction of the electric field )
#unpolarized( the optical  vector defined the direction of the incident light )
************************** End of input data file *****************************

reinit: -----------------------------------------------------------------------
reinit: System Name: graphene
reinit: -----------------------------------------------------------------------
reinit: System Label: graphene
reinit: -----------------------------------------------------------------------

initatom: Reading input for the pseudopotentials and atomic orbitals ----------
Species number:   1 Atomic number:    6 Label: C
 
Ground state valence configuration:   2s02  2p02
Reading pseudopotential information in formatted form from C.psf

Valence configuration for pseudopotential generation:
2s( 2.00) rc: 1.54
2p( 2.00) rc: 1.54
3d( 0.00) rc: 1.54
4f( 0.00) rc: 1.54
For C, standard SIESTA heuristics set lmxkb to 3
 (one more than the basis l, including polarization orbitals).
Use PS.lmax or PS.KBprojectors blocks to override.

<basis_specs>
===============================================================================
C                    Z=   6    Mass=  12.010        Charge= 0.17977+309
Lmxo=1 Lmxkb= 3    BasisType=split      Semic=F
L=0  Nsemic=0  Cnfigmx=2
          n=1  nzeta=2  polorb=0
            splnorm:   0.15000    
               vcte:    0.0000    
               rinn:    0.0000    
               qcoe:    0.0000    
               qyuk:    0.0000    
               qwid:   0.10000E-01
                rcs:    0.0000      0.0000    
            lambdas:    1.0000      1.0000    
L=1  Nsemic=0  Cnfigmx=2
          n=1  nzeta=2  polorb=1
            splnorm:   0.15000    
               vcte:    0.0000    
               rinn:    0.0000    
               qcoe:    0.0000    
               qyuk:    0.0000    
               qwid:   0.10000E-01
                rcs:    0.0000      0.0000    
            lambdas:    1.0000      1.0000    
-------------------------------------------------------------------------------
L=0  Nkbl=1  erefs: 0.17977+309
L=1  Nkbl=1  erefs: 0.17977+309
L=2  Nkbl=1  erefs: 0.17977+309
L=3  Nkbl=1  erefs: 0.17977+309
===============================================================================
</basis_specs>

atom: Called for C                     (Z =   6)

read_vps: Pseudopotential generation method:
read_vps: ATM3      Troullier-Martins                       
Total valence charge:    4.00000

read_vps: Pseudopotential includes a core correction:
read_vps: Pseudo-core for xc-correction

xc_check: Exchange-correlation functional:
xc_check: GGA Perdew, Burke & Ernzerhof 1996
V l=0 = -2*Zval/r beyond r=  1.5227
V l=1 = -2*Zval/r beyond r=  1.5227
V l=2 = -2*Zval/r beyond r=  1.5227
V l=3 = -2*Zval/r beyond r=  1.5038
All V_l potentials equal beyond r=  1.5227
This should be close to max(r_c) in ps generation
All pots = -2*Zval/r beyond r=  1.5227

VLOCAL1: 99.0% of the norm of Vloc inside     18.722 Ry
VLOCAL1: 99.9% of the norm of Vloc inside     42.668 Ry
atom: Maximum radius for 4*pi*r*r*local-pseudopot. charge    1.83678
atom: Maximum radius for r*vlocal+2*Zval:    1.58088
GHOST: No ghost state for L =  0
GHOST: No ghost state for L =  1
GHOST: No ghost state for L =  2
GHOST: No ghost state for L =  3

KBgen: Kleinman-Bylander projectors: 
   l= 0   rc=  1.704034   el= -1.009801   Ekb=  5.335044   kbcos=  0.316824
   l= 1   rc=  1.704034   el= -0.388707   Ekb= -3.785862   kbcos= -0.366464
   l= 2   rc=  1.791422   el=  0.001971   Ekb= -0.970471   kbcos= -0.009212
   l= 3   rc=  1.859892   el=  0.003065   Ekb= -0.399525   kbcos= -0.001223

KBgen: Total number of  Kleinman-Bylander projectors:   16
atom: -------------------------------------------------------------------------

atom: SANKEY-TYPE ORBITALS:
atom: Selected multiple-zeta basis: split     

SPLIT: Orbitals with angular momentum L= 0

SPLIT: Basis orbitals for state 2s

SPLIT: PAO cut-off radius determined from an
SPLIT: energy shift=  0.003675 Ry

   izeta = 1
                 lambda =    1.000000
                     rc =    4.993604
                 energy =   -1.005980
                kinetic =    0.839218
    potential(screened) =   -1.845197
       potential(ionic) =   -5.392735

   izeta = 2
                 rmatch =    3.475094
              splitnorm =    0.150000
                 energy =   -0.867669
                kinetic =    1.299533
    potential(screened) =   -2.167202
       potential(ionic) =   -5.961376

SPLIT: Orbitals with angular momentum L= 1

SPLIT: Basis orbitals for state 2p

SPLIT: PAO cut-off radius determined from an
SPLIT: energy shift=  0.003675 Ry

   izeta = 1
                 lambda =    1.000000
                     rc =    6.253707
                 energy =   -0.385053
                kinetic =    2.351236
    potential(screened) =   -2.736289
       potential(ionic) =   -6.136106

   izeta = 2
                 rmatch =    3.745781
              splitnorm =    0.150000
                 energy =   -0.256704
                kinetic =    3.501099
    potential(screened) =   -3.757803
       potential(ionic) =   -7.537656

POLgen: Perturbative polarization orbital with L=  2

POLgen: Polarization orbital for state 2p

   izeta = 1
                     rc =    6.253707
                 energy =    1.023651
                kinetic =    2.146437
    potential(screened) =   -1.122786
       potential(ionic) =   -3.868043
atom: Total number of Sankey-type orbitals: 13

atm_pop: Valence configuration (for local Pseudopot. screening):
 2s( 2.00)                                                            
 2p( 2.00)                                                            
Vna: chval, zval:    4.00000   4.00000

Vna:  Cut-off radius for the neutral-atom potential:   6.253707
comcore: Pseudo-core radius Rcore=  1.791422

atom: _________________________________________________________________________

prinput: Basis input ----------------------------------------------------------

PAO.BasisType split     

%block ChemicalSpeciesLabel
    1    6 C                       # Species index, atomic number, species label
%endblock ChemicalSpeciesLabel

%block PAO.Basis                 # Define Basis set
C                     2                    # Species label, number of l-shells
 n=2   0   2                         # n, l, Nzeta 
   4.994      3.475   
   1.000      1.000   
 n=2   1   2 P   1                   # n, l, Nzeta, Polarization, NzetaPol
   6.254      3.746   
   1.000      1.000   
%endblock PAO.Basis

prinput: ----------------------------------------------------------------------

Dumping basis to NetCDF file C.ion.nc
coor:   Atomic-coordinates input format  =     Cartesian coordinates
coor:                                          (in Angstroms)

siesta: Atomic coordinates (Bohr) and species
siesta:      2.72121   0.00000   0.00000  1        1
siesta:      5.44241   0.00000   0.00000  1        2

siesta: System type = slab      

initatomlists: Number of atoms, orbitals, and projectors:      2    26    32

coxmol: Writing XMOL coordinates into file graphene.xyz                                                        

siesta: ******************** Simulation parameters ****************************
siesta:
siesta: The following are some of the parameters of the simulation.
siesta: A complete list of the parameters used, including default values,
siesta: can be found in file out.fdf
siesta:
redata: Spin configuration                          = none
redata: Number of spin components                   = 1
redata: Time-Reversal Symmetry                      = T
redata: Spin-spiral                                 = F
redata: Long output                                 =   F
redata: Number of Atomic Species                    =        1
redata: Charge density info will appear in .RHO file
redata: Write Mulliken Pop.                         = Atomic and Orbital charges
redata: Matel table size (NRTAB)                    =     1024
redata: Mesh Cutoff                                 =   400.0000 Ry
redata: Net charge of the system                    =     0.0000 |e|
redata: Min. number of SCF Iter                     =        0
redata: Max. number of SCF Iter                     =      300
redata: SCF convergence failure will abort job
redata: SCF mix quantity                            = Hamiltonian
redata: Mix DM or H after convergence               =   F
redata: Recompute H after scf cycle                 =   F
redata: Mix DM in first SCF step                    =   T
redata: Write Pulay info on disk                    =   F
redata: New DM Mixing Weight                        =     0.1000
redata: New DM Occupancy tolerance                  = 0.000000000001
redata: No kicks to SCF
redata: DM Mixing Weight for Kicks                  =     0.5000
redata: Require Harris convergence for SCF          =   F
redata: Harris energy tolerance for SCF             =     0.000100 eV
redata: Require DM convergence for SCF              =   T
redata: DM tolerance for SCF                        =     0.000100
redata: Require EDM convergence for SCF             =   F
redata: EDM tolerance for SCF                       =     0.001000 eV
redata: Require H convergence for SCF               =   T
redata: Hamiltonian tolerance for SCF               =     0.001000 eV
redata: Require (free) Energy convergence for SCF   =   F
redata: (free) Energy tolerance for SCF             =     0.000100 eV
redata: Using Saved Data (generic)                  =   F
redata: Use continuation files for DM               =   F
redata: Neglect nonoverlap interactions             =   F
redata: Method of Calculation                       = Diagonalization
redata: Electronic Temperature                      =   232.0888 K
redata: Fix the spin of the system                  =   F
redata: Dynamics option                             = Single-point calculation
mix.SCF: Pulay mixing                            = Pulay
mix.SCF:    Variant                              = stable
mix.SCF:    History steps                        = 3
mix.SCF:    Linear mixing weight                 =     0.100000
mix.SCF:    Mixing weight                        =     0.100000
mix.SCF:    SVD condition                        = 0.1000E-07
redata: ***********************************************************************

%block SCF.Mixers
  Pulay
%endblock SCF.Mixers

%block SCF.Mixer.Pulay
  # Mixing method
  method pulay
  variant stable

  # Mixing options
  weight 0.1000
  weight.linear 0.1000
  history 3
%endblock SCF.Mixer.Pulay
 
DM_history_depth set to one: no extrapolation allowed by default for geometry relaxation
Size of DM history Fstack: 1
Total number of electrons:     8.000000
Total ionic charge:     8.000000

* ProcessorY, Blocksize:    4   1


* Orbital distribution balance (max,min):     2     1

k-point displ. along   1 input, could be:     0.00    0.50
k-point displ. along   2 input, could be:     0.00    0.50
 Kpoints in:         2112 . Kpoints trimmed:         2081

siesta: k-grid: Number of k-points =  2081
siesta: k-grid: Cutoff (effective) =    24.600 Ang
siesta: k-grid: Supercell and displacements
siesta: k-grid:   64   0   0      0.000
siesta: k-grid:    0  64   0      0.000
siesta: k-grid:    0   0   1      0.000
 
diag: Algorithm                                     = D&C
diag: Parallel over k                               =   F
diag: Use parallel 2D distribution                  =   T
diag: Parallel block-size                           = 1
diag: Parallel distribution                         =     4 x     4
diag: Used triangular part                          = Lower
diag: Absolute tolerance                            =  0.100E-15
diag: Orthogonalization factor                      =  0.100E-05
diag: Memory factor                                 =  1.0000
Using current reciprocal lattice vectors for BandLinesScale
Beware any cell changes by the end of the run
Using current reciprocal lattice vectors for BandLinesScale
Beware any cell changes by the end of the run

superc: Internal auxiliary supercell:     9 x     9 x     1  =      81
superc: Number of atoms, orbitals, and projectors:    162   2106   2592
 
 
ts: **************************************************************
ts: Save H and S matrices                           =    F
ts: Save DM and EDM matrices                        =    F
ts: Fix Hartree potential                           =    F
ts: Only save the overlap matrix S                  =    F
ts: **************************************************************
 
************************ Begin: TS CHECKS AND WARNINGS ************************
************************ End: TS CHECKS AND WARNINGS **************************


                     ====================================
                        Single-point calculation
                     ====================================

superc: Internal auxiliary supercell:     9 x     9 x     1  =      81
superc: Number of atoms, orbitals, and projectors:    162   2106   2592

outcell: Unit cell vectors (Ang):
        2.130422    1.230000    0.000000
        2.130422   -1.230000    0.000000
        0.000000    0.000000   49.200000

outcell: Cell vector modules (Ang)   :    2.459999    2.459999   49.200000
outcell: Cell angles (23,13,12) (deg):     90.0000     90.0000     60.0000
outcell: Cell volume (Ang**3)        :    257.8492
<dSpData1D:S at geom step 0
  <sparsity:sparsity for geom step 0
    nrows_g=26 nrows=2 sparsity=2.4497 nnzs=1656, refcount: 7>
  <dData1D:(new from dSpData1D) n=1656, refcount: 1>
refcount: 1>
new_DM -- step:     1
Initializing Density Matrix...
DM filled with atomic data:
<dSpData2D:DM initialized from atoms
  <sparsity:sparsity for geom step 0
    nrows_g=26 nrows=2 sparsity=2.4497 nnzs=1656, refcount: 8>
  <dData2D:DM n=1656 m=1, refcount: 1>
refcount: 1>
No. of atoms with KB's overlaping orbs in proc 0. Max # of overlaps:      25     263
New grid distribution:   1
           1       1:   15    1:    4    1:   75
           2       1:   15    1:    4   76:  150
           3       1:   15    1:    4  151:  225
           4       1:   15    1:    4  226:  300
           5       1:   15    5:    8    1:   75
           6       1:   15    5:    8   76:  150
           7       1:   15    5:    8  151:  225
           8       1:   15    5:    8  226:  300
           9       1:   15    9:   12    1:   75
          10       1:   15    9:   12   76:  150
          11       1:   15    9:   12  151:  225
          12       1:   15    9:   12  226:  300
          13       1:   15   13:   15    1:   75
          14       1:   15   13:   15   76:  150
          15       1:   15   13:   15  151:  225
          16       1:   15   13:   15  226:  300

InitMesh: MESH =    30 x    30 x   600 =      540000
InitMesh: (bp) =    15 x    15 x   300 =       67500
InitMesh: Mesh cutoff (required, used) =   400.000   411.030 Ry
ExtMesh (bp) on 0 =   111 x   100 x   159 =     1764900
New grid distribution:   2
           1       1:   15    1:   15    7:    8
           2       1:   15    1:   15   17:  288
           3       1:   15    1:   15    4:    5
           4       1:   15    1:   15    2:    2
           5       1:   15    1:   15   12:   16
           6       1:   15    1:   15  299:  299
           7       1:   15    1:   15    1:    1
           8       1:   15    1:   15  292:  293
           9       1:   15    1:   15    9:   11
          10       1:   15    1:   15  300:  300
          11       1:   15    1:   15    6:    6
          12       1:   15    1:   15  294:  295
          13       1:   15    1:   15  296:  297
          14       1:   15    1:   15  298:  298
          15       1:   15    1:   15    3:    3
          16       1:   15    1:   15  289:  291
New grid distribution:   3
           1       1:   15    1:   15    1:    3
           2       1:   15    1:   15   64:  282
           3       1:   15    1:   15  299:  300
           4       1:   15    1:   15  291:  293
           5       1:   15    1:   15   19:   63
           6       1:   15    1:   15    6:    8
           7       1:   15    1:   15    9:   10
           8       1:   15    1:   15  296:  298
           9       1:   15    1:   15   11:   13
          10       1:   15    1:   15  294:  295
          11       1:   15    1:   15   14:   15
          12       1:   15    1:   15  283:  285
          13       1:   15    1:   15   16:   18
          14       1:   15    1:   15    4:    5
          15       1:   15    1:   15  289:  290
          16       1:   15    1:   15  286:  288
Setting up quadratic distribution...
ExtMesh (bp) on 0 =   111 x   111 x    86 =     1059606
PhiOnMesh: Number of (b)points on node 0 =                  450
PhiOnMesh: nlist on node 0 =                53173

stepf: Fermi-Dirac step function

siesta: Program's energy decomposition (eV):
siesta: Ebs     =       -97.008810
siesta: Eions   =       511.194752
siesta: Ena     =       112.045505
siesta: Ekin    =       224.428839
siesta: Enl     =       -23.541828
siesta: Eso     =         0.000000
siesta: Eldau   =         0.000000
siesta: DEna    =       -14.012583
siesta: DUscf   =         1.384203
siesta: DUext   =         0.000000
siesta: Enegf   =         0.000000
siesta: Exc     =      -113.569254
siesta: eta*DQ  =         0.000000
siesta: Emadel  =         0.000000
siesta: Emeta   =         0.000000
siesta: Emolmec =         0.000000
siesta: Ekinion =         0.000000
siesta: Eharris =      -320.094587
siesta: Etot    =      -324.459868
siesta: FreeEng =      -324.459895

        iscf     Eharris(eV)        E_KS(eV)     FreeEng(eV)     dDmax    Ef(eV) dHmax(eV)
   scf:    1     -320.094587     -324.459868     -324.459895  1.802161 -7.017400  5.173129
timer: Routine,Calls,Time,% = IterSCF        1      17.546  92.95
   scf:    2     -324.560127     -324.510468     -324.510495  0.020003 -6.627722  4.457623
   scf:    3     -324.782028     -324.667900     -324.667924  0.118326 -4.241759  0.123754
   scf:    4     -324.657867     -324.663563     -324.663586  0.019669 -3.771076  0.967071
   scf:    5     -324.671183     -324.667956     -324.667980  0.019989 -4.343668  0.035513
   scf:    6     -324.667968     -324.667963     -324.667987  0.000759 -4.364606  0.000665
   scf:    7     -324.667963     -324.667963     -324.667987  0.000017 -4.364657  0.000457

SCF Convergence by DM+H criterion
max |DM_out - DM_in|         :     0.0000167451
max |H_out - H_in|      (eV) :     0.0004573837
SCF cycle converged after 7 iterations

Using DM_out to compute the final energy and forces
No. of atoms with KB's overlaping orbs in proc 0. Max # of overlaps:      25     263

siesta: E_KS(eV) =             -324.6680

siesta: E_KS - E_eggbox =      -324.6680

siesta: Atomic forces (eV/Ang):
----------------------------------------
   Tot    0.007802   -0.000000   -0.000000
----------------------------------------
   Max    1.153570
   Res    0.663765    sqrt( Sum f_i^2 / 3N )
----------------------------------------
   Max    1.153570    constrained

Stress-tensor-Voigt (kbar):       -7.60      -11.54       -0.00       -0.00        0.00       -0.00
(Free)E + p*V (eV/cell)     -323.6410
Target enthalpy (eV/cell)     -324.6680
 
mulliken: Atomic and Orbital Populations:

Species: C                   
Atom  Qatom  Qorb
               2s      2s      2py     2pz     2px     2py     2pz     2px     
               2Pdxy   2Pdyz   2Pdz2   2Pdxz   2Pdx2-y2
   1  4.000   0.317   0.629   0.634   0.601   0.615   0.340   0.315   0.354
              0.051   0.043   0.007   0.041   0.053
   2  4.000   0.317   0.629   0.635   0.601   0.615   0.340   0.315   0.353
              0.051   0.043   0.007   0.041   0.053

mulliken: Qtot =        8.000

coxmol: Writing XMOL coordinates into file graphene.xyz                                                        
Computing bands...

siesta: Band energies (eV):
  ik is    eps
   1  1 -17.11 -16.92 -14.97  -4.49  -4.23   7.99   9.31   9.67  11.19  15.88
         15.94  16.42  16.69  20.76  28.89  41.89  42.04  54.22  55.29  60.86
         61.34  81.67 111.39 112.52 114.31 131.93
   2  1 -17.18 -16.84 -14.97  -4.59  -4.13   7.99   9.32   9.62  11.21  15.75
         16.07  16.40  16.74  20.75  28.91  41.62  42.31  54.27  55.25  60.78
         61.38  81.68 111.12 111.95 115.17 131.97
   3  1 -17.28 -16.75 -14.95  -4.72  -4.00   8.00   9.32   9.56  11.22  15.62
         16.22  16.39  16.80  20.74  28.94  41.33  42.59  54.23  55.17  60.51
         61.67  81.63 110.56 111.43 116.36 132.08
   4  1 -17.41 -16.65 -14.91  -4.85  -3.87   8.03   9.29   9.50  11.23  15.49
         16.37  16.40  16.86  20.72  28.98  41.05  42.87  54.10  55.05  60.25
         62.03  81.55 109.77 111.08 117.70 132.26
   5  1 -17.54 -16.55 -14.86  -4.99  -3.72   8.06   9.25   9.43  11.22  15.36
         16.43  16.53  16.92  20.69  29.03  40.78  43.14  53.90  54.86  60.04
         62.41  81.42 108.93 110.76 119.14 132.51
   6  1 -17.68 -16.44 -14.80  -5.14  -3.58   8.10   9.19   9.36  11.20  15.23
         16.49  16.69  16.99  20.67  29.09  40.52  43.39  53.64  54.60  59.87
         62.82  81.24 108.11 110.43 120.66 132.83
   7  1 -17.83 -16.33 -14.72  -5.29  -3.43   8.15   9.11   9.29  11.16  15.11
         16.58  16.86  17.05  20.64  29.16  40.27  43.64  53.33  54.28  59.76
         63.25  81.02 107.31 110.07 122.25 133.23
   8  1 -17.98 -16.22 -14.64  -5.44  -3.27   8.21   9.02   9.23  11.10  15.00
         16.68  17.04  17.11  20.61  29.24  40.04  43.87  52.98  53.91  59.70
         63.68  80.76 106.55 109.68 123.88 133.72
   9  1 -18.14 -16.11 -14.55  -5.60  -3.12   8.28   8.92   9.17  11.02  14.89
         16.81  17.16  17.22  20.59  29.32  39.81  44.09  52.58  53.50  59.68
         64.12  80.45 105.83 109.26 125.53 134.32
  10  1 -18.30 -15.99 -14.45  -5.75  -2.96   8.35   8.80   9.11  10.92  14.79
         16.95  17.21  17.41  20.56  29.41  39.60  44.29  52.16  53.06  59.70
         64.56  80.10 105.15 108.81 127.16 135.03
  11  1 -18.46 -15.87 -14.35  -5.91  -2.79   8.42   8.68   9.05  10.81  14.70
         17.10  17.25  17.61  20.54  29.52  39.40  44.48  51.70  52.60  59.74
         64.99  79.71 104.52 108.33 128.72 135.91
  12  1 -18.62 -15.75 -14.24  -6.07  -2.62   8.50   8.56   9.00  10.68  14.61
         17.24  17.30  17.81  20.52  29.62  39.22  44.66  51.20  52.16  59.81
         65.41  79.29 103.93 107.83 130.16 136.99
  13  1 -18.78 -15.62 -14.13  -6.23  -2.45   8.43   8.59   8.94  10.54  14.54
         17.27  17.45  18.02  20.51  29.74  39.05  44.82  50.67  51.73  59.91
         65.82  78.82 103.38 107.30 131.43 138.30
  14  1 -18.94 -15.49 -14.01  -6.40  -2.28   8.29   8.67   8.88  10.39  14.48
         17.27  17.63  18.23  20.52  29.86  38.90  44.97  50.11  51.32  60.01
         66.21  78.32 102.88 106.74 132.53 139.82
  15  1 -19.10 -15.36 -13.89  -6.56  -2.10   8.16   8.75   8.83  10.24  14.44
         17.25  17.81  18.45  20.53  29.98  38.77  45.10  49.54  50.93  60.14
         66.60  77.79 102.41 106.17 133.48 141.51
  16  1 -19.26 -15.23 -13.77  -6.72  -1.92   8.02   8.77   8.83  10.07  14.41
         17.21  18.00  18.69  20.56  30.11  38.65  45.21  48.97  50.57  60.27
         66.96  77.22 101.98 105.57 134.31 143.31
  17  1 -19.41 -15.10 -13.64  -6.88  -1.74   7.88   8.71   8.90   9.90  14.40
         17.14  18.18  18.92  20.60  30.23  38.55  45.32  48.40  50.24  60.41
         67.31  76.62 101.57 104.97 135.06 145.18
  18  1 -19.57 -14.96 -13.52  -7.05  -1.56   7.74   8.65   8.97   9.72  14.41
         17.06  18.37  19.17  20.66  30.36  38.47  45.40  47.84  49.92  60.56
         67.65  76.00 101.19 104.35 135.76 147.06
  19  1 -19.72 -14.82 -13.39  -7.21  -1.37   7.59   8.59   9.03   9.54  14.43
         16.96  18.56  19.42  20.74  30.48  38.42  45.47  47.31  49.63  60.72
         67.97  75.35 100.83 103.73 136.40 148.92
  20  1 -19.88 -14.68 -13.25  -7.37  -1.18   7.45   8.53   9.08   9.35  14.48
         16.84  18.74  19.68  20.83  30.60  38.39  45.53  46.81  49.36  60.88
         68.27  74.68 100.47 103.11 137.02 150.72
  21  1 -20.03 -14.53 -13.12  -7.53  -0.98   7.31   8.47   9.12   9.17  14.56
         16.69  18.93  19.95  20.93  30.71  38.38  45.57  46.35  49.11  61.04
         68.56  73.98 100.11 102.52 137.60 152.44
  22  1 -20.17 -14.38 -12.98  -7.68  -0.79   7.17   8.41   8.98   9.16  14.65
         16.54  19.11  20.23  21.05  30.81  38.41  45.60  45.92  48.88  61.20
         68.84  73.27  99.72 101.96 138.15 154.05
  23  1 -20.32 -14.24 -12.84  -7.84  -0.59   7.02   8.35   8.79   9.18  14.77
         16.36  19.29  20.52  21.18  30.90  38.46  45.55  45.61  48.68  61.37
         69.11  72.54  99.29 101.46 138.67 155.53
  24  1 -20.46 -14.08 -12.70  -8.00  -0.39   6.88   8.28   8.61   9.19  14.92
         16.17  19.47  20.81  21.33  30.97  38.55  45.22  45.61  48.49  61.53
         69.36  71.80  98.79 101.03 139.17 156.84
  25  1 -20.60 -13.93 -12.56  -8.15  -0.19   6.74   8.21   8.43   9.19  15.08
         15.97  19.65  21.11  21.49  31.03  38.68  44.95  45.60  48.32  61.70
         69.60  71.04  98.22 100.68 139.63 157.99
  26  1 -20.74 -13.78 -12.42  -8.30   0.02   6.60   8.11   8.28   9.18  15.27
         15.76  19.82  21.41  21.66  31.06  38.86  44.73  45.57  48.17  61.86
         69.84  70.27  97.60 100.40 140.05 158.94
  27  1 -20.88 -13.62 -12.28  -8.45   0.23   6.47   7.97   8.17   9.16  15.48
         15.54  20.00  21.73  21.85  31.08  39.08  44.56  45.53  48.04  62.02
         69.50  70.06  96.93 100.17 140.45 159.69
  28  1 -21.01 -13.46 -12.13  -8.60   0.43   6.33   7.81   8.09   9.13  15.31
         15.72  20.17  22.04  22.04  31.09  39.36  44.45  45.49  47.93  62.19
         68.71  70.28  96.23  99.98 140.80 160.22
  29  1 -21.14 -13.30 -11.99  -8.74   0.65   6.19   7.63   8.02   9.10  15.07
         15.97  20.35  22.25  22.36  31.07  39.70  44.40  45.43  47.83  62.35
         67.93  70.49  95.50  99.82 141.11 160.54
  30  1 -21.27 -13.13 -11.84  -8.89   0.86   6.06   7.46   7.96   9.05  14.82
         16.24  20.52  22.47  22.68  31.04  40.10  44.39  45.36  47.75  62.50
         67.14  70.69  94.76  99.69 141.37 160.63
  31  1 -21.39 -12.97 -11.70  -9.03   1.07   5.93   7.28   7.89   9.01  14.57
         16.52  20.70  22.70  23.00  30.99  40.59  44.44  45.28  47.69  62.66
         66.35  70.89  94.01  99.58 141.59 160.50
  32  1 -21.51 -12.80 -11.55  -9.17   1.29   5.80   7.11   7.83   8.96  14.31
         16.83  20.87  22.94  23.32  30.94  41.15  44.53  45.20  47.64  62.81
         65.56  71.08  93.25  99.49 141.76 160.16
  33  1 -21.63 -12.63 -11.40  -9.30   1.50   5.67   6.95   7.77   8.91  14.05
         17.15  21.04  23.20  23.63  30.88  41.81  44.66  45.11  47.60  62.96
         64.78  71.26  92.49  99.42 141.88 159.62
  34  1 -21.75 -12.47 -11.25  -9.43   1.72   5.54   6.78   7.70   8.85  13.79
         17.48  21.21  23.47  23.94  30.82  42.58  44.82  45.02  47.58  63.11
         64.00  71.44  91.72  99.37 141.94 158.89
  35  1 -21.86 -12.29 -11.11  -9.56   1.94   5.42   6.62   7.63   8.79  13.52
         17.82  21.38  23.76  24.23  30.76  43.45  44.92  45.02  47.57  63.23
         63.25  71.60  90.95  99.34 141.95 157.99
  36  1 -21.97 -12.12 -10.96  -9.69   2.16   5.30   6.47   7.57   8.73  13.26
         18.18  21.54  24.06  24.52  30.71  44.41  44.84  45.25  47.57  62.47
         63.40  71.76  90.19  99.33 141.90 156.95
  37  1 -22.08 -11.95 -10.81  -9.81   2.37   5.18   6.32   7.50   8.67  12.99
         18.55  21.70  24.38  24.79  30.68  44.68  45.50  45.59  47.58  61.72
         63.54  71.91  89.43  99.33 141.79 155.78
  38  1 -22.19 -11.78 -10.67  -9.93   2.59   5.07   6.17   7.43   8.62  12.73
         18.93  21.86  24.72  25.05  30.66  44.58  45.76  46.83  47.60  60.99
         63.67  72.06  88.67  99.36 141.62 154.51
  39  1 -22.29 -11.60 -10.52 -10.05   2.81   4.95   6.03   7.35   8.56  12.47
         19.31  22.01  25.07  25.30  30.68  44.48  46.04  47.63  48.21  60.28
         63.81  72.19  87.92  99.41 141.37 153.18
  40  1 -22.39 -11.43 -10.38 -10.17   3.03   4.84   5.90   7.28   8.50  12.21
         19.71  22.15  25.45  25.53  30.73  44.37  46.33  47.67  49.71  59.62
         63.94  72.31  87.18  99.48 141.05 151.81
  41  1 -22.48 -11.25 -10.28 -10.23   3.24   4.74   5.77   7.20   8.44  11.95
         20.11  22.28  25.74  25.86  30.82  44.27  46.63  47.71  51.30  59.02
         64.08  72.43  86.45  99.57 140.65 150.44
  42  1 -22.58 -11.08 -10.38 -10.09   3.45   4.63   5.64   7.12   8.38  11.70
         20.52  22.39  25.94  26.29  30.96  44.16  46.92  47.76  52.91  58.58
         64.21  72.53  85.73  99.68 140.16 149.10
  43  1 -22.67 -10.90 -10.49  -9.95   3.67   4.53   5.52   7.04   8.32  11.46
         20.93  22.49  26.13  26.76  31.17  44.06  47.21  47.83  54.29  58.53
         64.34  72.63  85.02  99.82 139.56 147.81
  44  1 -22.75 -10.73 -10.59  -9.81   3.87   4.44   5.40   6.95   8.27  11.22
         21.34  22.57  26.31  27.26  31.44  43.97  47.50  47.90  54.93  59.37
         64.47  72.72  84.33  99.98 138.87 146.62
  45  1 -22.84 -10.69 -10.55  -9.68   4.08   4.35   5.29   6.86   8.22  10.99
         21.76  22.64  26.47  27.80  31.79  43.88  47.75  48.00  54.83  61.08
         64.60  72.80  83.65 100.16 138.07 145.53
  46  1 -22.92 -10.78 -10.38  -9.54   4.26   4.28   5.18   6.76   8.17  10.77
         22.18  22.68  26.63  28.38  32.23  43.80  47.92  48.17  54.42  63.23
         64.74  72.87  82.99 100.37 137.17 144.56
  47  1 -23.00 -10.87 -10.21  -9.41   4.17   4.48   5.08   6.66   8.12  10.56
         22.60  22.70  26.78  29.02  32.77  43.72  48.03  48.40  53.89  64.87
         65.58  72.94  82.35 100.61 136.20 143.71
  48  1 -23.07 -10.96 -10.04  -9.28   4.09   4.68   4.98   6.55   8.07  10.36
         22.71  23.01  26.92  29.71  33.42  43.65  48.11  48.64  53.32  65.01
         68.04  73.01  81.73 100.87 135.18 142.95
  49  1 -23.14 -11.04  -9.87  -9.15   4.02   4.87   4.89   6.44   8.03  10.17
         22.69  23.42  27.05  30.47  34.20  43.59  48.19  48.86  52.74  65.15
         70.53  73.07  81.14 101.16 134.14 142.29
  50  1 -23.21 -11.12  -9.70  -9.02   3.95   4.79   5.05   6.33   7.98   9.99
         22.66  23.83  27.18  31.31  35.11  43.54  48.27  49.07  52.16  65.29
         73.01  73.12  80.56 101.48 133.11 141.69
  51  1 -23.28 -11.20  -9.54  -8.90   3.88   4.71   5.23   6.21   7.94   9.82
         22.62  24.23  27.30  32.23  36.18  43.50  48.34  49.26  51.59  65.45
         73.18  75.44  80.02 101.83 132.11 141.16
  52  1 -23.34 -11.27  -9.38  -8.78   3.82   4.62   5.41   6.08   7.90   9.67
         22.57  24.62  27.42  33.24  37.42  43.46  48.42  49.44  51.03  65.61
         73.23  77.76  79.50 102.21 131.14 140.67
  53  1 -23.40 -11.34  -9.23  -8.66   3.76   4.54   5.58   5.95   7.87   9.52
         22.50  25.00  27.54  34.37  38.84  43.44  48.49  49.59  50.48  65.78
         73.28  79.02  79.94 102.62 130.22 140.23
  54  1 -23.45 -11.41  -9.08  -8.55   3.71   4.47   5.74   5.82   7.83   9.39
         22.43  25.37  27.65  35.62  40.48  43.43  48.56  49.73  49.95  65.97
         73.33  78.57  81.94 103.06 129.36 139.83
  55  1 -23.51 -11.47  -8.94  -8.43   3.66   4.39   5.69   5.89   7.80   9.27
         22.35  25.73  27.77  37.00  42.35  43.42  48.64  49.44  49.85  66.18
         73.39  78.15  83.76 103.54 128.56 139.46
  56  1 -23.55 -11.53  -8.81  -8.32   3.62   4.32   5.56   6.04   7.77   9.16
         22.27  26.07  27.88  38.53  43.42  44.46  48.72  48.95  49.98  66.41
         73.44  77.77  85.36 104.06 127.82 139.12
  57  1 -23.60 -11.59  -8.68  -8.21   3.58   4.25   5.43   6.18   7.74   9.06
         22.18  26.39  27.98  40.22  43.43  46.75  48.48  48.82  50.18  66.68
         73.50  77.43  86.74 104.62 127.13 138.79
  58  1 -23.64 -11.64  -8.56  -8.10   3.55   4.19   5.30   6.31   7.72   8.97
         22.10  26.69  28.09  42.07  43.45  48.04  48.55  49.19  50.93  67.00
         73.56  77.15  87.91 105.22 126.49 138.46
  59  1 -23.68 -11.68  -8.45  -8.00   3.52   4.12   5.17   6.43   7.69   8.89
         22.02  26.98  28.20  43.47  44.06  47.62  48.85  49.69  53.38  67.38
         73.63  76.93  88.87 105.86 125.91 138.10
  60  1 -23.72 -11.73  -8.36  -7.90   3.50   4.06   5.05   6.55   7.67   8.82
         21.94  27.24  28.30  43.49  46.13  47.23  49.02  49.85  56.72  67.86
         73.71  76.78  89.65 106.56 125.37 137.70
  61  1 -23.75 -11.77  -8.27  -7.80   3.48   4.00   4.94   6.65   7.65   8.75
         21.86  27.48  28.40  43.52  46.87  47.90  49.44  50.05  60.48  68.46
         73.84  76.75  90.25 107.33 124.88 137.22
  62  1 -23.78 -11.80  -8.19  -7.71   3.47   3.94   4.84   6.75   7.63   8.69
         21.79  27.69  28.50  43.55  46.54  48.57  49.76  51.45  64.52  69.20
         74.05  76.88  90.71 108.16 124.42 136.63
  63  1 -23.81 -11.84  -8.12  -7.62   3.46   3.88   4.74   6.84   7.62   8.64
         21.72  27.89  28.59  43.57  46.24  48.73  49.80  53.52  68.55  70.09
         74.57  77.30  91.05 109.10 124.00 135.88
  64  1 -23.84 -11.86  -8.06  -7.54   3.45   3.83   4.66   6.92   7.60   8.60
         21.66  28.05  28.68  43.59  45.99  48.81  49.80  55.49  70.89  71.73
         76.21  78.23  91.28 110.16 123.59 134.93
  65  1 -23.86 -11.89  -8.00  -7.47   3.45   3.77   4.58   6.98   7.59   8.56
         21.61  28.20  28.76  43.60  45.77  48.85  49.79  57.14  71.62  72.96
         79.63  79.99  91.44 111.37 123.20 133.78
  66  1 -23.87 -11.91  -7.96  -7.41   3.45   3.72   4.52   7.04   7.58   8.53
         21.56  28.31  28.83  43.60  45.59  48.87  49.77  58.43  72.04  73.42
         82.39  83.76  91.53 112.78 122.80 132.41
  67  1 -23.89 -11.93  -7.92  -7.35   3.46   3.68   4.47   7.09   7.57   8.50
         21.53  28.41  28.90  43.60  45.44  48.89  49.76  59.37  72.27  73.65
         85.50  87.45  91.59 114.35 122.35 130.90
  68  1 -23.90 -11.94  -7.89  -7.31   3.47   3.64   4.43   7.12   7.57   8.48
         21.49  28.48  28.95  43.59  45.34  48.90  49.75  60.01  72.38  73.79
         88.79  90.49  91.62 115.97 121.82 129.37
  69  1 -23.91 -11.95  -7.88  -7.28   3.48   3.60   4.40   7.15   7.56   8.47
         21.47  28.53  28.99  43.59  45.27  48.90  49.74  60.43  72.44  73.86
         91.63  91.68  92.83 117.39 121.22 128.08
  70  1 -23.91 -11.96  -7.86  -7.26   3.49   3.57   4.38   7.17   7.56   8.46
         21.46  28.56  29.02  43.58  45.22  48.91  49.73  60.67  72.46  73.90
         91.64  93.38  94.65 118.27 120.74 127.24
  71  1 -23.91 -11.96  -7.86  -7.26   3.50   3.56   4.38   7.17   7.56   8.46
         21.46  28.57  29.03  43.58  45.21  48.91  49.73  60.74  72.47  73.91
         91.64  93.88  95.41 118.49 120.61 126.95
  72  1 -23.91 -11.96  -7.86  -7.26   3.50   3.57   4.38   7.17   7.56   8.46
         21.46  28.56  29.02  43.59  45.21  48.91  49.73  60.68  72.47  73.90
         91.64  93.36  95.01 118.57 120.46 127.13
  73  1 -23.91 -11.95  -7.88  -7.27   3.50   3.59   4.39   7.16   7.56   8.47
         21.47  28.55  28.99  43.62  45.22  48.91  49.72  60.51  72.45  73.87
         91.64  91.80  93.95 118.29 120.46 127.66
  74  1 -23.90 -11.94  -7.90  -7.29   3.49   3.61   4.40   7.13   7.56   8.48
         21.49  28.52  28.95  43.67  45.22  48.92  49.72  60.20  72.42  73.79
         89.37  91.63  92.44 116.96 121.21 128.45
  75  1 -23.89 -11.93  -7.92  -7.31   3.49   3.65   4.42   7.11   7.57   8.50
         21.51  28.48  28.90  43.73  45.24  48.93  49.71  59.73  72.38  73.66
         86.38  90.61  91.61 114.90 122.38 129.38
  76  1 -23.88 -11.92  -7.96  -7.34   3.49   3.69   4.44   7.07   7.58   8.52
         21.54  28.43  28.83  43.81  45.27  48.94  49.70  59.05  72.29  73.42
         83.23  88.57  91.58 112.41 123.70 130.34
  77  1 -23.87 -11.91  -8.01  -7.37   3.50   3.74   4.47   7.03   7.58   8.54
         21.57  28.37  28.75  43.89  45.32  48.95  49.69  58.11  72.12  73.02
         80.30  86.41  91.53 109.66 125.07 131.23
  78  1 -23.85 -11.89  -8.06  -7.41   3.50   3.79   4.51   6.97   7.59   8.57
         21.62  28.29  28.66  43.97  45.40  48.95  49.68  56.85  71.55  72.53
         78.05  84.18  91.44 106.80 126.40 132.03
  79  1 -23.84 -11.87  -8.12  -7.46   3.51   3.85   4.55   6.91   7.60   8.61
         21.66  28.20  28.56  44.03  45.51  48.94  49.67  55.24  70.30  72.21
         76.68  81.98  91.30 103.93 127.66 132.71
  80  1 -23.82 -11.84  -8.19  -7.51   3.52   3.91   4.60   6.85   7.62   8.65
         21.72  28.09  28.46  44.09  45.65  48.90  49.65  53.30  68.79  71.90
         75.94  79.89  91.11 101.13 128.81 133.28
  81  1 -23.79 -11.81  -8.27  -7.56   3.53   3.97   4.66   6.77   7.63   8.69
         21.77  27.96  28.35  44.12  45.84  48.80  49.59  51.22  67.38  71.44
         75.48  78.03  90.83  98.48 129.85 133.75
  82  1 -23.77 -11.78  -8.35  -7.62   3.55   4.03   4.72   6.69   7.64   8.74
         21.84  27.82  28.23  44.14  46.07  48.09  49.27  49.89  66.16  70.66
         75.06  76.60  90.47  96.02 130.75 134.14
  83  1 -23.74 -11.75  -8.44  -7.68   3.56   4.09   4.80   6.60   7.66   8.80
         21.90  27.67  28.10  44.16  46.13  46.32  49.03  49.74  65.10  69.47
         74.56  75.77  89.99  93.80 131.52 134.46
  84  1 -23.71 -11.71  -8.54  -7.75   3.58   4.15   4.89   6.50   7.68   8.86
         21.97  27.51  27.96  44.00  44.16  46.61  48.93  49.71  64.14  67.92
         74.09  75.33  89.39  91.84 132.16 134.73
  85  1 -23.68 -11.68  -8.65  -7.81   3.60   4.21   5.00   6.40   7.70   8.92
         22.04  27.34  27.81  41.98  44.17  46.93  48.85  49.70  63.23  66.18
         73.74  75.02  88.64  90.16 132.68 134.97
  86  1 -23.65 -11.63  -8.76  -7.88   3.62   4.26   5.11   6.29   7.72   8.99
         22.11  27.16  27.64  40.12  44.18  47.27  48.76  49.69  62.33  64.37
         73.46  74.74  87.74  88.79 133.09 135.18
  87  1 -23.61 -11.59  -8.88  -7.96   3.64   4.30   5.24   6.17   7.75   9.06
         22.19  26.98  27.47  38.43  44.19  47.62  48.66  49.67  61.42  62.57
         73.21  74.46  86.66  87.70 133.40 135.37
  88  1 -23.57 -11.54  -9.01  -8.03   3.67   4.35   5.38   6.05   7.77   9.14
         22.26  26.79  27.28  36.91  44.21  48.00  48.54  49.65  60.46  60.85
         72.95  74.20  85.40  86.89 133.63 135.56
  89  1 -23.53 -11.49  -9.14  -8.10   3.69   4.39   5.53   5.92   7.80   9.22
         22.33  26.60  27.07  35.56  44.24  48.39  48.41  49.63  59.06  59.62
         72.67  73.98  83.96  86.31 133.77 135.74
  90  1 -23.48 -11.44  -9.27  -8.18   3.72   4.43   5.68   5.78   7.83   9.31
         22.40  26.40  26.85  34.36  44.28  48.26  48.80  49.59  57.47  58.65
         72.36  73.79  82.34  85.94 133.84 135.94
  91  1 -23.44 -11.39  -9.42  -8.26   3.74   4.47   5.64   5.85   7.86   9.40
         22.47  26.20  26.62  33.29  44.33  48.08  49.22  49.55  55.95  57.68
         72.03  73.63  80.54  85.74 133.84 136.16
  92  1 -23.39 -11.33  -9.56  -8.34   3.76   4.51   5.49   6.02   7.89   9.50
         22.53  26.00  26.37  32.35  44.39  47.86  49.51  49.66  54.52  56.71
         71.71  73.49  78.59  85.68 133.80 136.39
  93  1 -23.34 -11.27  -9.71  -8.42   3.78   4.56   5.34   6.20   7.92   9.60
         22.58  25.80  26.11  31.52  44.46  47.61  49.45  50.11  53.20  55.76
         71.41  73.37  76.50  85.73 133.71 136.64
  94  1 -23.28 -11.20  -9.87  -8.50   3.80   4.60   5.18   6.39   7.96   9.70
         22.63  25.60  25.83  30.80  44.55  47.30  49.39  50.56  52.01  54.83
         71.12  73.25  74.30  85.87 133.60 136.90
  95  1 -23.23 -11.14 -10.03  -8.58   3.82   4.66   5.02   6.59   8.00   9.81
         22.66  25.38  25.56  30.17  44.65  46.90  49.31  50.95  51.03  53.93
         70.86  72.01  73.14  86.09 133.47 137.17
  96  1 -23.17 -11.07 -10.19  -8.65   3.83   4.71   4.85   6.79   8.04   9.91
         22.68  25.13  25.30  29.62  44.77  46.41  49.23  50.06  51.50  53.06
         69.68  70.62  73.02  86.36 133.34 137.44
  97  1 -23.11 -10.99 -10.36  -8.73   3.84   4.68   4.77   6.99   8.08  10.03
         22.69  24.84  25.08  29.15  44.90  45.80  49.13  49.34  51.98  52.24
         67.32  70.40  72.90  86.68 133.21 137.70
  98  1 -23.04 -10.92 -10.52  -8.81   3.84   4.50   4.84   7.20   8.13  10.14
         22.68  24.52  24.88  28.75  45.04  45.10  48.75  49.04  51.47  52.47
         64.97  70.20  72.78  87.04 133.10 137.94
  99  1 -22.98 -10.84 -10.70  -8.89   3.84   4.32   4.91   7.42   8.17  10.26
         22.66  24.18  24.68  28.42  44.34  45.20  48.28  48.90  50.76  52.97
         62.66  70.02  72.66  87.44 133.01 138.16
 100  1 -22.91 -10.87 -10.76  -8.97   3.84   4.14   4.99   7.64   8.22  10.37
         22.61  23.83  24.50  28.15  43.55  45.37  47.89  48.73  50.14  53.47
         60.41  69.85  72.53  87.86 132.95 138.36
 101  1 -22.84 -11.04 -10.68  -9.05   3.83   3.95   5.07   7.86   8.27  10.49
         22.55  23.47  24.31  27.93  42.76  45.55  47.54  48.47  49.64  53.97
         58.24  69.69  72.40  88.31 132.92 138.51
 102  1 -22.77 -11.22 -10.60  -9.13   3.76   3.82   5.16   8.09   8.33  10.61
         22.47  23.10  24.13  27.76  41.99  45.75  47.22  48.10  49.30  54.44
         56.20  69.55  72.26  88.78 132.92 138.62
 103  1 -22.70 -11.40 -10.51  -9.20   3.56   3.81   5.26   8.32   8.38  10.73
         22.38  22.73  23.95  27.64  41.25  45.96  46.90  47.65  49.09  54.08
         55.11  69.41  72.12  89.27 132.97 138.67
 104  1 -22.62 -11.58 -10.42  -9.28   3.37   3.80   5.35   8.44   8.56  10.85
         22.27  22.35  23.78  27.56  40.53  46.17  46.60  47.17  48.95  52.29
         55.56  69.28  71.98  89.77 133.06 138.65
 105  1 -22.54 -11.77 -10.33  -9.35   3.17   3.78   5.46   8.50   8.80  10.97
         21.96  22.16  23.61  27.50  39.85  46.29  46.40  46.72  48.84  50.57
         56.07  69.15  71.83  90.28 133.20 138.57
 106  1 -22.46 -11.95 -10.23  -9.43   2.97   3.77   5.57   8.56   9.04  11.08
         21.58  22.03  23.45  27.48  39.21  45.97  46.29  46.62  48.75  48.97
         56.59  69.03  71.68  90.80 133.38 138.40
 107  1 -22.37 -12.13 -10.13  -9.50   2.76   3.75   5.68   8.62   9.28  11.20
         21.20  21.90  23.28  27.48  38.60  45.65  45.90  46.80  47.54  48.68
         57.11  68.91  71.54  91.32 133.60 138.15
 108  1 -22.29 -12.32 -10.03  -9.57   2.56   3.73   5.80   8.69   9.52  11.31
         20.82  21.77  23.13  27.49  38.02  45.32  45.55  46.00  47.21  48.62
         57.63  68.79  71.39  91.86 133.87 137.81
 109  1 -22.20 -12.50  -9.93  -9.64   2.36   3.71   5.92   8.75   9.77  11.42
         20.44  21.64  22.97  27.52  37.47  44.76  44.99  45.23  47.44  48.58
         58.15  68.67  71.24  92.39 134.17 137.38
 110  1 -22.11 -12.69  -9.83  -9.71   2.15   3.69   6.04   8.82  10.02  11.53
         20.07  21.51  22.83  27.56  36.95  43.59  44.67  44.94  47.70  48.55
         58.67  68.55  71.10  92.92 134.51 136.86
 111  1 -22.02 -12.88  -9.78  -9.72   1.94   3.66   6.17   8.89  10.27  11.64
         19.71  21.37  22.68  27.61  36.46  42.51  44.36  44.67  47.98  48.52
         59.19  68.43  70.95  93.46 134.84 136.29
 112  1 -21.92 -13.06  -9.84  -9.61   1.74   3.64   6.31   8.97  10.52  11.74
         19.35  21.25  22.54  27.67  35.99  41.52  44.06  44.44  48.26  48.52
         59.70  68.30  70.81  93.99 134.93 135.89
 113  1 -21.83 -13.25  -9.90  -9.50   1.53   3.62   6.45   9.04  10.77  11.83
         19.01  21.12  22.41  27.73  35.55  40.62  43.75  44.24  48.52  48.54
         60.21  68.17  70.67  94.51 134.36 136.09
 114  1 -21.73 -13.44  -9.96  -9.39   1.32   3.59   6.59   9.12  11.02  11.92
         18.67  21.00  22.27  27.80  35.14  39.78  43.43  44.08  48.54  48.83
         60.72  68.04  70.54  95.03 133.48 136.54
 115  1 -21.63 -13.62 -10.02  -9.27   1.12   3.57   6.73   9.19  11.26  12.00
         18.34  20.89  22.15  27.86  34.75  39.02  43.12  43.96  48.57  49.12
         61.22  67.90  70.41  95.54 132.46 137.06
 116  1 -21.52 -13.81 -10.08  -9.16   0.91   3.55   6.88   9.27  11.51  12.08
         18.03  20.78  22.03  27.93  34.38  38.32  42.80  43.88  48.62  49.41
         61.71  67.75  70.28  96.04 131.35 137.63
 117  1 -21.42 -14.00 -10.14  -9.04   0.71   3.52   7.03   9.36  11.76  12.15
         17.72  20.68  21.91  28.00  34.03  37.68  42.49  43.84  48.69  49.71
         62.20  67.60  70.17  96.53 130.15 138.22
 118  1 -21.31 -14.18 -10.19  -8.92   0.50   3.50   7.19   9.44  12.00  12.21
         17.43  20.58  21.80  28.06  33.70  37.09  42.18  43.83  48.77  50.00
         62.67  67.44  70.05  97.01 128.88 138.83
 119  1 -21.20 -14.37 -10.24  -8.80   0.30   3.48   7.34   9.52  12.23  12.29
         17.14  20.50  21.69  28.12  33.38  36.55  41.87  43.86  48.87  50.29
         63.14  67.28  69.94  97.47 127.55 139.47
 120  1 -21.09 -14.55 -10.29  -8.68   0.10   3.46   7.50   9.61  12.30  12.50
         16.87  20.42  21.59  28.18  33.09  36.05  41.56  43.93  48.99  50.58
         63.59  67.10  69.84  97.92 126.17 140.11
 121  1 -20.97 -14.73 -10.34  -8.55  -0.10   3.44   7.67   9.70  12.34  12.74
         16.61  20.34  21.49  28.24  32.81  35.60  41.26  44.02  49.12  50.86
         64.03  66.92  69.74  98.34 124.76 140.77
 122  1 -20.86 -14.91 -10.39  -8.43  -0.30   3.42   7.83   9.79  12.37  12.97
         16.35  20.28  21.39  28.29  32.54  35.18  40.97  44.15  49.28  51.14
         64.46  66.72  69.65  98.75 123.32 141.42
 123  1 -20.74 -15.09 -10.43  -8.30  -0.49   3.40   8.00   9.88  12.39  13.20
         16.11  20.22  21.31  28.34  32.29  34.79  40.69  44.30  49.46  51.41
         64.88  66.52  69.57  99.13 121.87 142.08
 124  1 -20.62 -15.27 -10.47  -8.18  -0.68   3.38   8.16   9.97  12.39  13.42
         15.88  20.17  21.22  28.39  32.06  34.44  40.41  44.48  49.66  51.68
         65.28  66.30  69.49  99.49 120.43 142.74
 125  1 -20.50 -15.45 -10.51  -8.05  -0.87   3.36   8.33  10.06  12.39  13.64
         15.65  20.12  21.14  28.43  31.84  34.12  40.15  44.68  49.89  51.94
         65.66  66.08  69.42  99.82 119.00 143.38
 126  1 -20.37 -15.63 -10.55  -7.93  -1.05   3.34   8.50  10.15  12.38  13.85
         15.44  20.08  21.07  28.46  31.63  33.83  39.89  44.89  50.14  52.19
         65.83  66.03  69.35 100.12 117.60 144.01
 127  1 -20.25 -15.81 -10.58  -7.81  -1.23   3.32   8.67  10.24  12.36  14.06
         15.24  20.05  21.00  28.50  31.43  33.56  39.65  45.12  50.43  52.43
         65.58  66.38  69.29 100.38 116.25 144.62
 128  1 -20.12 -15.98 -10.61  -7.68  -1.40   3.31   8.84  10.33  12.33  14.25
         15.04  20.02  20.93  28.53  31.24  33.31  39.42  45.36  50.74  52.66
         65.31  66.71  69.23 100.60 114.95 145.21
 129  1 -19.99 -16.15 -10.64  -7.56  -1.57   3.29   9.01  10.43  12.29  14.44
         14.86  20.00  20.87  28.55  31.07  33.09  39.21  45.60  51.08  52.87
         65.03  67.02  69.18 100.79 113.73 145.78
 130  1 -19.86 -16.32 -10.67  -7.45  -1.73   3.28   9.17  10.52  12.24  14.62
         14.68  19.98  20.82  28.58  30.91  32.89  39.01  45.83  51.46  53.07
         64.74  67.31  69.14 100.92 112.60 146.31
 131  1 -19.73 -16.49 -10.69  -7.33  -1.89   3.27   9.34  10.61  12.19  14.51
         14.78  19.96  20.77  28.60  30.76  32.71  38.82  46.06  51.86  53.26
         64.43  67.57  69.10 101.00 111.57 146.81
 132  1 -19.60 -16.65 -10.72  -7.22  -2.03   3.26   9.50  10.70  12.13  14.36
         14.93  19.95  20.72  28.61  30.63  32.55  38.65  46.27  52.28  53.44
         64.11  67.82  69.06 101.02 110.65 147.28
 133  1 -19.47 -16.82 -10.74  -7.12  -2.17   3.25   9.65  10.78  12.06  14.21
         15.07  19.94  20.68  28.63  30.51  32.41  38.50  46.47  52.73  53.59
         63.78  68.04  69.03 100.98 109.86 147.70
 134  1 -19.34 -16.98 -10.76  -7.02  -2.30   3.24   9.80  10.86  11.99  14.08
         15.20  19.94  20.65  28.64  30.40  32.28  38.36  46.65  53.19  53.73
         63.44  68.23  69.00 100.88 109.20 148.09
 135  1 -19.21 -17.13 -10.77  -6.93  -2.41   3.23   9.95  10.94  11.91  13.96
         15.31  19.93  20.61  28.65  30.30  32.18  38.24  46.81  53.65  53.86
         63.11  68.41  68.98 100.75 108.66 148.42
 136  1 -19.08 -17.28 -10.79  -6.85  -2.51   3.22  10.08  11.00  11.84  13.85
         15.41  19.93  20.59  28.65  30.22  32.09  38.14  46.94  53.96  54.10
         62.78  68.55  68.96 100.58 108.25 148.71
 137  1 -18.95 -17.42 -10.80  -6.79  -2.60   3.22  10.21  11.06  11.76  13.76
         15.49  19.93  20.57  28.66  30.15  32.02  38.06  47.05  54.05  54.52
         62.46  68.67  68.94 100.40 107.94 148.95
 138  1 -18.84 -17.55 -10.80  -6.73  -2.67   3.21  10.31  11.11  11.69  13.69
         15.55  19.93  20.55  28.66  30.10  31.96  37.99  47.14  54.12  54.88
         62.18  68.76  68.93 100.23 107.71 149.14
 139  1 -18.74 -17.65 -10.81  -6.69  -2.72   3.21  10.40  11.15  11.63  13.64
         15.60  19.93  20.54  28.67  30.06  31.92  37.95  47.20  54.17  55.17
         61.96  68.83  68.92 100.10 107.57 149.28
 140  1 -18.67 -17.73 -10.81  -6.67  -2.75   3.21  10.45  11.17  11.59  13.60
         15.62  19.92  20.53  28.67  30.04  31.90  37.92  47.24  54.20  55.36
         61.81  68.87  68.92 100.01 107.49 149.36
 141  1 -18.65 -17.75 -10.82  -6.66  -2.76   3.21  10.47  11.18  11.58  13.59
         15.63  19.92  20.53  28.67  30.03  31.89  37.91  47.25  54.21  55.43
         61.76  68.89  68.92  99.98 107.46 149.38
 142  1 -18.65 -17.75 -10.82  -6.66  -2.76   3.21  10.47  11.18  11.58  13.59
         15.63  19.93  20.52  28.58  30.12  31.90  37.90  47.30  54.20  55.43
         61.79  68.89  68.92  99.98 107.46 149.38
 143  1 -18.64 -17.75 -10.82  -6.66  -2.76   3.22  10.47  11.17  11.58  13.59
         15.63  19.93  20.52  28.35  30.35  31.91  37.87  47.43  54.18  55.43
         61.88  68.91  68.92  99.99 107.47 149.36
 144  1 -18.64 -17.75 -10.83  -6.65  -2.76   3.23  10.47  11.17  11.58  13.60
         15.63  19.93  20.50  28.07  30.62  31.93  37.82  47.64  54.14  55.43
         62.04  68.91  68.97 100.00 107.49 149.34
 145  1 -18.64 -17.75 -10.84  -6.65  -2.76   3.25  10.47  11.16  11.58  13.60
         15.63  19.93  20.48  27.75  30.93  31.96  37.75  47.92  54.09  55.43
         62.26  68.90  69.03 100.02 107.51 149.31
 146  1 -18.64 -17.75 -10.86  -6.65  -2.76   3.27  10.47  11.14  11.58  13.60
         15.63  19.94  20.46  27.43  31.23  32.00  37.69  48.27  54.03  55.43
         62.55  68.88  69.11 100.05 107.53 149.26
 147  1 -18.63 -17.74 -10.88  -6.64  -2.76   3.30  10.47  11.13  11.58  13.61
         15.64  19.94  20.43  27.10  31.52  32.05  37.62  48.67  53.95  55.42
         62.93  68.87  69.20 100.07 107.57 149.21
 148  1 -18.63 -17.74 -10.90  -6.63  -2.76   3.33  10.46  11.11  11.58  13.62
         15.64  19.95  20.39  26.78  31.79  32.10  37.56  49.12  53.86  55.42
         63.40  68.85  69.31 100.11 107.60 149.14
 149  1 -18.62 -17.73 -10.93  -6.63  -2.76   3.36  10.46  11.09  11.58  13.62
         15.64  19.95  20.35  26.45  32.04  32.17  37.52  49.59  53.75  55.42
         63.97  68.83  69.43 100.15 107.65 149.07
 150  1 -18.62 -17.73 -10.96  -6.62  -2.77   3.41  10.46  11.07  11.58  13.63
         15.64  19.96  20.31  26.14  32.24  32.26  37.51  50.08  53.64  55.42
         64.65  68.81  69.57 100.19 107.70 148.99
 151  1 -18.61 -17.72 -10.99  -6.61  -2.77   3.45  10.46  11.04  11.58  13.64
         15.64  19.97  20.26  25.83  32.32  32.44  37.52  50.57  53.51  55.42
         65.46  68.79  69.73 100.24 107.75 148.89
 152  1 -18.60 -17.71 -11.03  -6.60  -2.77   3.50  10.45  11.01  11.58  13.65
         15.64  19.98  20.21  25.53  32.40  32.58  37.58  51.06  53.38  55.42
         66.40  68.76  69.89 100.29 107.81 148.78
 153  1 -18.60 -17.71 -11.07  -6.59  -2.78   3.56  10.45  10.98  11.58  13.66
         15.64  19.99  20.15  25.23  32.49  32.68  37.67  51.52  53.23  55.42
         67.46  68.75  70.07 100.35 107.88 148.66
 154  1 -18.59 -17.70 -11.11  -6.57  -2.78   3.61  10.45  10.94  11.58  13.67
         15.64  20.00  20.09  24.95  32.59  32.74  37.80  51.96  53.08  55.42
         68.47  68.94  70.26 100.42 107.95 148.53
 155  1 -18.58 -17.69 -11.15  -6.56  -2.78   3.68  10.44  10.91  11.58  13.68
         15.65  20.01  20.03  24.67  32.70  32.76  37.96  52.37  52.92  55.43
         68.60  70.16  70.46 100.49 108.03 148.39
 156  1 -18.57 -17.68 -11.20  -6.55  -2.79   3.74  10.44  10.87  11.58  13.70
         15.65  19.96  20.02  24.40  32.75  32.81  38.16  52.75  52.75  55.43
         68.58  70.67  71.67 100.56 108.11 148.24
 157  1 -18.56 -17.67 -11.25  -6.53  -2.79   3.81  10.43  10.83  11.58  13.71
         15.65  19.89  20.03  24.13  32.71  32.93  38.39  52.57  53.10  55.43
         68.54  70.88  73.35 100.64 108.20 148.07
 158  1 -18.55 -17.66 -11.31  -6.52  -2.80   3.89  10.43  10.78  11.57  13.72
         15.65  19.82  20.04  23.88  32.64  33.05  38.64  52.39  53.42  55.43
         68.50  71.11  75.16 100.72 108.29 147.89
 159  1 -18.53 -17.64 -11.36  -6.50  -2.80   3.97  10.42  10.73  11.57  13.74
         15.66  19.75  20.06  23.63  32.56  33.18  38.91  52.20  53.71  55.43
         68.45  71.34  77.10 100.81 108.38 147.69
 160  1 -18.52 -17.63 -11.42  -6.48  -2.81   4.05  10.42  10.68  11.57  13.76
         15.66  19.67  20.07  23.38  32.46  33.31  39.19  52.01  53.97  55.43
         68.40  71.58  79.16 100.90 108.48 147.49
 161  1 -18.51 -17.62 -11.48  -6.46  -2.82   4.14  10.41  10.63  11.57  13.78
         15.67  19.60  20.08  23.15  32.35  33.45  39.49  51.81  54.21  55.44
         68.35  71.83  81.33 100.99 108.59 147.26
 162  1 -18.49 -17.61 -11.54  -6.44  -2.82   4.22  10.40  10.58  11.57  13.79
         15.67  19.52  20.10  22.92  32.23  33.59  39.79  51.61  54.43  55.44
         68.29  72.08  83.58 101.09 108.70 147.03
 163  1 -18.48 -17.59 -11.61  -6.42  -2.83   4.32  10.40  10.52  11.57  13.81
         15.67  19.44  20.11  22.70  32.11  33.73  40.11  51.41  54.63  55.45
         68.24  72.33  85.91 101.20 108.81 146.78
 164  1 -18.46 -17.58 -11.68  -6.40  -2.84   4.41  10.39  10.46  11.57  13.83
         15.68  19.36  20.13  22.48  31.98  33.88  40.43  51.20  54.80  55.47
         68.17  72.59  88.29 101.31 108.93 146.52
 165  1 -18.45 -17.56 -11.75  -6.38  -2.85   4.51  10.38  10.40  11.56  13.86
         15.68  19.29  20.14  22.27  31.85  34.04  40.75  50.99  54.96  55.49
         68.11  72.85  90.71 101.42 109.05 146.24
 166  1 -18.43 -17.55 -11.82  -6.35  -2.86   4.61  10.34  10.37  11.56  13.88
         15.69  19.21  20.16  22.06  31.72  34.19  41.08  50.78  55.09  55.54
         68.04  73.12  93.15 101.53 109.17 145.95
 167  1 -18.41 -17.53 -11.89  -6.33  -2.87   4.71  10.28  10.37  11.56  13.90
         15.70  19.13  20.17  21.86  31.59  34.35  41.41  50.57  55.19  55.61
         67.97  73.39  95.58 101.65 109.29 145.64
 168  1 -18.39 -17.51 -11.96  -6.30  -2.88   4.82  10.21  10.36  11.56  13.93
         15.70  19.05  20.19  21.67  31.46  34.51  41.75  50.35  55.25  55.70
         67.90  73.66  97.99 101.78 109.42 145.32
 169  1 -18.38 -17.49 -12.04  -6.28  -2.89   4.93  10.14  10.35  11.55  13.95
         15.71  18.97  20.20  21.48  31.33  34.68  42.09  50.14  55.28  55.82
         67.82  73.93 100.35 101.91 109.55 144.99
 170  1 -18.36 -17.48 -12.12  -6.25  -2.90   5.04  10.07  10.34  11.55  13.98
         15.72  18.89  20.21  21.30  31.21  34.84  42.42  49.92  55.30  55.94
         67.74  74.20 102.01 102.68 109.69 144.64
 171  1 -18.34 -17.46 -12.20  -6.22  -2.91   5.15  10.00  10.33  11.54  14.00
         15.73  18.81  20.22  21.13  31.08  35.01  42.77  49.70  55.31  56.07
         67.66  74.48 102.16 104.87 109.83 144.28
 172  1 -18.31 -17.44 -12.28  -6.19  -2.93   5.27   9.93  10.32  11.54  14.03
         15.74  18.73  20.23  20.96  30.96  35.18  43.11  49.49  55.32  56.21
         67.57  74.75 102.31 106.97 109.98 143.91
 173  1 -18.29 -17.42 -12.36  -6.16  -2.94   5.39   9.86  10.31  11.53  14.06
         15.75  18.65  20.22  20.81  30.84  35.36  43.45  49.27  55.33  56.34
         67.48  75.02 102.45 108.90 110.19 143.52
 174  1 -18.27 -17.40 -12.44  -6.13  -2.96   5.51   9.79  10.30  11.53  14.09
         15.76  18.57  20.20  20.68  30.73  35.53  43.79  49.05  55.33  56.47
         67.39  75.29 102.60 110.02 111.08 143.13
 175  1 -18.25 -17.38 -12.52  -6.09  -2.97   5.63   9.72  10.29  11.52  14.12
         15.77  18.49  20.15  20.58  30.61  35.71  44.14  48.83  55.33  56.60
         67.29  75.56 102.75 110.26 112.72 142.72
 176  1 -18.22 -17.35 -12.61  -6.06  -2.99   5.75   9.64  10.27  11.52  14.15
         15.78  18.41  20.07  20.52  30.50  35.88  44.48  48.61  55.33  56.73
         67.19  75.83 102.90 110.41 114.29 142.31
 177  1 -18.20 -17.33 -12.69  -6.03  -3.01   5.87   9.57  10.26  11.51  14.19
         15.79  18.34  19.95  20.49  30.40  36.06  44.83  48.40  55.33  56.86
         67.09  76.10 103.06 110.55 115.73 141.89
 178  1 -18.17 -17.31 -12.78  -5.99  -3.03   6.00   9.50  10.25  11.50  14.22
         15.80  18.26  19.82  20.48  30.30  36.24  45.17  48.18  55.33  56.99
         66.99  76.36 103.22 110.68 117.02 141.46
 179  1 -18.15 -17.29 -12.86  -5.95  -3.05   6.13   9.42  10.24  11.49  14.26
         15.82  18.18  19.68  20.49  30.20  36.42  45.52  47.96  55.33  57.11
         66.88  76.63 103.38 110.81 118.16 141.02
 180  1 -18.12 -17.27 -12.95  -5.92  -3.07   6.25   9.35  10.22  11.48  14.29
         15.83  18.11  19.54  20.50  30.10  36.60  45.86  47.75  55.33  57.24
         66.76  76.89 103.55 110.93 119.14 140.58
 181  1 -18.09 -17.24 -13.04  -5.88  -3.10   6.38   9.28  10.21  11.47  14.33
         15.85  18.03  19.40  20.51  30.01  36.79  46.21  47.54  55.33  57.37
         66.64  77.14 103.73 111.05 119.99 140.14
 182  1 -18.07 -17.22 -13.12  -5.84  -3.12   6.51   9.20  10.20  11.46  14.37
         15.86  17.96  19.26  20.52  29.92  36.97  46.55  47.32  55.33  57.50
         66.52  77.39 103.91 111.17 120.69 139.69
 183  1 -18.04 -17.20 -13.21  -5.80  -3.14   6.64   9.13  10.18  11.45  14.41
         15.88  17.89  19.13  20.53  29.84  37.15  46.90  47.11  55.33  57.62
         66.39  77.64 104.09 111.28 121.26 139.25
 184  1 -18.01 -17.17 -13.30  -5.76  -3.17   6.77   9.06  10.17  11.44  14.45
         15.89  17.81  18.99  20.55  29.76  37.33  46.90  47.24  55.33  57.75
         66.26  77.88 104.28 111.39 121.70 138.81
 185  1 -17.98 -17.15 -13.38  -5.72  -3.20   6.90   8.99  10.15  11.42  14.49
         15.91  17.74  18.86  20.56  29.68  37.52  46.69  47.58  55.33  57.87
         66.13  78.12 104.47 111.49 122.03 138.37
 186  1 -17.95 -17.13 -13.47  -5.67  -3.23   7.03   8.93  10.14  11.41  14.53
         15.93  17.67  18.73  20.58  29.61  37.70  46.48  47.92  55.33  58.00
         65.99  78.35 104.67 111.58 122.24 137.93
 187  1 -17.92 -17.10 -13.56  -5.63  -3.26   7.15   8.86  10.12  11.40  14.57
         15.95  17.59  18.60  20.59  29.54  37.88  46.28  48.26  55.33  58.12
         65.84  78.58 104.88 111.67 122.36 137.51
 188  1 -17.89 -17.08 -13.64  -5.59  -3.29   7.28   8.79  10.11  11.38  14.61
         15.97  17.52  18.47  20.61  29.48  38.07  46.07  48.60  55.33  58.24
         65.69  78.80 105.09 111.76 122.40 137.09
 189  1 -17.85 -17.06 -13.73  -5.54  -3.32   7.41   8.73  10.09  11.37  14.66
         15.99  17.45  18.35  20.62  29.42  38.25  45.87  48.93  55.33  58.37
         65.53  79.02 105.31 111.83 122.35 136.67
 190  1 -17.82 -17.04 -13.81  -5.49  -3.36   7.54   8.67  10.08  11.35  14.71
         16.01  17.38  18.23  20.64  29.36  38.43  45.67  49.26  55.33  58.49
         65.37  79.23 105.54 111.90 122.23 136.27
 191  1 -17.79 -17.01 -13.90  -5.45  -3.39   7.66   8.61  10.06  11.34  14.75
         16.03  17.31  18.11  20.65  29.31  38.61  45.47  49.59  55.33  58.61
         65.21  79.43 105.78 111.97 122.04 135.89
 192  1 -17.75 -16.99 -13.98  -5.40  -3.43   7.79   8.55  10.04  11.32  14.80
         16.05  17.23  18.00  20.67  29.25  38.79  45.27  49.91  55.33  58.73
         65.04  79.63 106.03 112.03 121.80 135.51
 193  1 -17.72 -16.97 -14.06  -5.35  -3.47   7.91   8.50  10.03  11.30  14.85
         16.07  17.16  17.88  20.68  29.21  38.97  45.08  50.23  55.34  58.84
         64.86  79.82 106.28 112.08 121.51 135.15
 194  1 -17.68 -16.95 -14.14  -5.30  -3.51   8.03   8.45  10.01  11.29  14.90
         16.10  17.09  17.78  20.69  29.16  39.15  44.89  50.55  55.34  58.96
         64.68  80.00 106.55 112.12 121.18 134.81
 195  1 -17.64 -16.94 -14.22  -5.25  -3.55   8.15   8.40   9.99  11.27  14.95
         16.12  17.02  17.67  20.70  29.12  39.33  44.69  50.86  55.34  59.08
         64.50  80.17 106.82 112.16 120.82 134.48
 196  1 -17.61 -16.92 -14.30  -5.20  -3.60   8.26   8.35   9.97  11.26  15.00
         16.15  16.95  17.57  20.71  29.09  39.51  44.50  51.16  55.34  59.19
         64.31  80.33 107.11 112.18 120.42 134.18
 197  1 -17.57 -16.90 -14.37  -5.14  -3.64   8.31   8.37   9.95  11.24  15.06
         16.17  16.88  17.47  20.72  29.05  39.69  44.32  51.46  55.34  59.30
         64.11  80.49 107.41 112.21 120.00 133.89
 198  1 -17.53 -16.89 -14.44  -5.09  -3.69   8.27   8.48   9.94  11.22  15.11
         16.20  16.81  17.37  20.73  29.02  39.86  44.13  51.75  55.34  59.41
         63.91  80.64 107.73 112.22 119.55 133.62
 199  1 -17.49 -16.88 -14.51  -5.03  -3.73   8.23   8.58   9.92  11.21  15.17
         16.22  16.74  17.28  20.74  28.99  40.04  43.95  52.03  55.34  59.52
         63.71  80.78 108.05 112.23 119.09 133.36
 200  1 -17.45 -16.87 -14.58  -4.98  -3.78   8.19   8.68   9.90  11.20  15.22
         16.25  16.66  17.19  20.75  28.97  40.21  43.77  52.30  55.34  59.63
         63.51  80.90 108.39 112.23 118.62 133.13
 201  1 -17.41 -16.87 -14.64  -4.92  -3.83   8.16   8.77   9.88  11.19  15.28
         16.28  16.59  17.11  20.75  28.95  40.38  43.59  52.56  55.34  59.74
         63.30  81.03 108.75 112.23 118.13 132.92
 202  1 -17.37 -16.87 -14.69  -4.87  -3.88   8.13   8.86   9.86  11.18  15.34
         16.31  16.52  17.03  20.76  28.93  40.55  43.41  52.81  55.34  59.85
         63.09  81.14 109.11 112.22 117.64 132.73
 203  1 -17.33 -16.87 -14.75  -4.81  -3.94   8.10   8.94   9.84  11.17  15.40
         16.33  16.45  16.96  20.76  28.91  40.72  43.24  53.04  55.34  59.96
         62.88  81.24 109.49 112.20 117.14 132.56
 204  1 -17.29 -16.87 -14.80  -4.75  -3.99   8.08   9.01   9.82  11.16  15.46
         16.36  16.38  16.89  20.77  28.90  40.89  43.07  53.26  55.33  60.07
         62.67  81.33 109.88 112.19 116.65 132.41
 205  1 -17.25 -16.88 -14.84  -4.70  -4.04   8.05   9.08   9.80  11.16  15.52
         16.31  16.38  16.83  20.77  28.89  41.05  42.90  53.46  55.33  60.19
         62.46  81.41 110.28 112.17 116.15 132.29
 206  1 -17.21 -16.89 -14.87  -4.64  -4.10   8.04   9.14   9.78  11.16  15.59
         16.24  16.41  16.78  20.77  28.88  41.21  42.73  53.65  55.33  60.30
         62.25  81.48 110.67 112.17 115.67 132.18
 207  1 -17.17 -16.91 -14.91  -4.58  -4.15   8.02   9.19   9.76  11.16  15.65
         16.17  16.43  16.73  20.77  28.88  41.37  42.57  53.81  55.32  60.42
         62.04  81.54 111.02 112.19 115.20 132.09
 208  1 -17.13 -16.92 -14.93  -4.53  -4.20   8.01   9.23   9.74  11.16  15.72
         16.10  16.44  16.70  20.77  28.88  41.53  42.40  53.95  55.31  60.54
         61.84  81.59 111.29 112.29 114.76 132.02
 209  1 -17.11 -16.94 -14.95  -4.49  -4.23   8.00   9.26   9.72  11.17  15.78
         16.03  16.44  16.68  20.77  28.88  41.69  42.25  54.07  55.31  60.65
         61.65  81.63 111.43 112.46 114.40 131.97
 210  1 -17.10 -16.94 -14.96  -4.48  -4.25   7.99   9.29   9.70  11.18  15.85
         15.97  16.44  16.68  20.77  28.88  41.83  42.10  54.16  55.30  60.77
         61.48  81.66 111.45 112.59 114.20 131.94
 211  1 -17.11 -16.92 -14.97  -4.49  -4.23   7.99   9.31   9.67  11.19  15.88
         15.94  16.42  16.69  20.76  28.89  41.89  42.04  54.22  55.29  60.86
         61.34  81.67 111.39 112.52 114.31 131.93

siesta: Eigenvalues (eV):
  ik is    eps
   1  1 -18.76 -17.63 -10.81  -6.70  -2.71   3.21  10.38  11.14  11.64  13.65
         15.59  19.93  20.54  28.67  30.07  31.93  37.96  47.19  54.16  55.12
         62.00  68.82  68.93 100.12 107.59 149.25
   2  1 -19.00 -17.37 -10.79  -6.81  -2.57   3.22  10.16  11.04  11.79  13.80
         15.46  19.93  20.57  28.66  30.18  32.04  38.09  47.01  54.02  54.36
         62.58  68.63  68.95 100.46 108.04 148.87
   3  1 -19.28 -17.04 -10.76  -6.98  -2.35   3.23   9.87  10.89  11.96  14.03
         15.25  19.93  20.63  28.64  30.36  32.24  38.31  46.72  53.39  53.79
         63.30  68.31  68.99 100.83 108.95 148.24
   4  1 -19.57 -16.70 -10.72  -7.20  -2.07   3.25   9.54  10.72  12.11  14.32
         14.97  19.95  20.71  28.62  30.60  32.51  38.61  46.32  52.39  53.48
         64.03  67.87  69.05 101.01 110.44 147.39
   5  1 -19.86 -16.33 -10.67  -7.44  -1.74   3.28   9.18  10.52  12.24  14.63
         14.67  19.98  20.82  28.58  30.90  32.88  39.00  45.85  51.48  53.09
         64.72  67.32  69.14 100.92 112.53 146.34
   6  1 -20.14 -15.96 -10.61  -7.70  -1.38   3.31   8.82  10.32  12.33  14.23
         15.07  20.02  20.94  28.52  31.27  33.34  39.45  45.33  50.70  52.63
         65.35  66.67  69.24 100.58 115.11 145.14
   7  1 -20.41 -15.57 -10.53  -7.97  -0.99   3.35   8.45  10.12  12.38  13.79
         15.51  20.09  21.09  28.45  31.69  33.91  39.97  44.82  50.06  52.11
         65.91  65.92  69.37 100.03 118.03 143.81
   8  1 -20.68 -15.18 -10.45  -8.24  -0.58   3.39   8.08   9.92  12.39  13.31
         15.99  20.19  21.26  28.36  32.17  34.61  40.55  44.39  49.56  51.55
         65.08  66.41  69.53  99.31 121.15 142.41
   9  1 -20.94 -14.79 -10.35  -8.51  -0.16   3.43   7.72   9.72  12.35  12.81
         16.53  20.32  21.46  28.26  32.72  35.46  41.17  44.06  49.17  50.95
         64.17  66.86  69.72  98.47 124.31 140.97
  10  1 -21.19 -14.39 -10.25  -8.78   0.27   3.48   7.36   9.53  12.24  12.31
         17.11  20.49  21.68  28.13  33.35  36.48  41.83  43.87  48.88  50.32
         63.19  67.26  69.93  97.53 127.38 139.55
  11  1 -21.42 -13.98 -10.13  -9.05   0.72   3.53   7.02   9.35  11.75  12.15
         17.74  20.69  21.92  27.99  34.05  37.72  42.51  43.84  48.68  49.69
         62.17  67.61  70.17  96.50 130.22 138.18
  12  1 -21.65 -13.58 -10.01  -9.30   1.17   3.58   6.70   9.17  11.20  11.98
         18.43  20.92  22.18  27.85  34.84  39.21  43.20  43.99  48.56  49.05
         61.09  67.93  70.44  95.42 132.73 136.93
  13  1 -21.87 -13.17  -9.88  -9.55   1.62   3.63   6.38   9.01  10.66  11.79
         19.16  21.18  22.46  27.71  35.74  41.00  43.88  44.32  48.42  48.52
         59.99  68.23  70.73  94.28 134.67 135.95
  14  1 -22.08 -12.76  -9.79  -9.73   2.07   3.68   6.09   8.85  10.11  11.57
         19.94  21.46  22.77  27.58  36.76  43.17  44.56  44.84  47.81  48.54
         58.87  68.50  71.04  93.13 134.64 136.65
  15  1 -22.27 -12.35 -10.01  -9.58   2.52   3.72   5.82   8.70   9.57  11.33
         20.75  21.75  23.10  27.50  37.91  45.26  45.49  45.77  47.25  48.61
         57.73  68.77  71.36  91.96 133.92 137.74
  16  1 -22.46 -11.95 -10.23  -9.43   2.97   3.77   5.57   8.56   9.04  11.08
         21.58  22.03  23.45  27.48  39.21  45.97  46.29  46.62  48.75  48.97
         56.59  69.03  71.68  90.80 133.38 138.40
  17  1 -22.63 -11.55 -10.43  -9.27   3.40   3.80   5.34   8.43   8.51  10.83
         22.29  22.42  23.81  27.57  40.67  46.13  46.65  47.26  48.97  52.63
         55.47  69.31  72.00  89.67 133.04 138.66
  18  1 -22.80 -11.16 -10.63  -9.10   3.83   3.83   5.13   8.01   8.31  10.57
         22.50  23.24  24.20  27.82  42.28  45.68  47.34  48.25  49.41  54.27
         56.94  69.60  72.31  88.60 132.92 138.58
  19  1 -22.95 -10.81 -10.77  -8.93   3.84   4.24   4.95   7.52   8.19  10.31
         22.64  24.03  24.60  28.29  43.99  45.27  48.11  48.83  50.47  53.19
         61.66  69.94  72.60  87.62 132.98 138.25
  20  1 -23.09 -10.98 -10.40  -8.75   3.84   4.63   4.79   7.05   8.09  10.05
         22.69  24.76  25.03  29.04  44.94  45.63  49.09  49.19  52.04  52.11
         66.73  70.35  72.87  86.77 133.18 137.76
  21  1 -23.22 -11.13 -10.04  -8.58   3.82   4.66   5.01   6.60   8.00   9.81
         22.66  25.37  25.54  30.13  44.66  46.88  49.31  50.89  51.06  53.87
         70.84  71.87  73.13  86.10 133.46 137.19
  22  1 -23.34 -11.27  -9.69  -8.41   3.78   4.55   5.36   6.18   7.92   9.58
         22.58  25.83  26.14  31.62  44.45  47.64  49.46  50.05  53.36  55.88
         71.44  73.38  76.77  85.72 133.72 136.61
  23  1 -23.45 -11.40  -9.37  -8.23   3.73   4.46   5.68   5.80   7.85   9.37
         22.45  26.27  26.69  33.61  44.31  48.13  49.09  49.57  56.41  57.98
         72.14  73.68  81.12  85.79 133.85 136.09
  24  1 -23.55 -11.52  -9.07  -8.07   3.68   4.37   5.45   5.98   7.78   9.18
         22.30  26.69  27.17  36.22  44.22  48.20  48.48  49.64  59.85  60.15
         72.82  74.09  84.70  86.57 133.71 135.65
  25  1 -23.63 -11.62  -8.80  -7.91   3.63   4.27   5.15   6.25   7.73   9.01
         22.14  27.10  27.59  39.57  44.18  47.38  48.73  49.68  62.05  63.80
         73.38  74.65  87.42  88.42 133.20 135.24
  26  1 -23.71 -11.71  -8.55  -7.76   3.58   4.16   4.91   6.49   7.68   8.86
         21.98  27.49  27.94  43.74  44.16  46.65  48.92  49.71  64.02  67.71
         74.04  75.29  89.31  91.61 132.23 134.76
  27  1 -23.77 -11.79  -8.34  -7.62   3.55   4.03   4.72   6.69   7.64   8.74
         21.83  27.83  28.23  44.14  46.05  48.19  49.30  49.92  66.23  70.72
         75.09  76.67  90.49  96.17 130.70 134.11
  28  1 -23.82 -11.85  -8.17  -7.50   3.52   3.89   4.59   6.86   7.61   8.64
         21.70  28.12  28.49  44.07  45.61  48.92  49.65  53.81  69.16  71.99
         76.09  80.40  91.16 101.82 128.54 133.14
  29  1 -23.86 -11.90  -8.04  -7.40   3.50   3.77   4.49   7.00   7.59   8.56
         21.60  28.33  28.70  43.93  45.36  48.95  49.69  57.45  71.88  72.73
         78.93  85.16  91.48 108.06 125.83 131.69
  30  1 -23.89 -11.93  -7.94  -7.32   3.49   3.66   4.43   7.09   7.57   8.50
         21.52  28.47  28.87  43.76  45.25  48.93  49.71  59.50  72.35  73.59
         85.20  89.87  91.60 114.01 122.87 129.74
  31  1 -23.91 -11.95  -7.88  -7.27   3.50   3.59   4.39   7.15   7.56   8.47
         21.47  28.55  28.99  43.63  45.22  48.91  49.72  60.46  72.45  73.86
         91.41  91.64  93.70 118.12 120.55 127.79
  32  1 -23.91 -11.96  -7.86  -7.26   3.50   3.56   4.38   7.17   7.56   8.46
         21.46  28.57  29.03  43.58  45.21  48.91  49.73  60.74  72.47  73.91
         91.64  93.88  95.41 118.49 120.61 126.95
  33  1 -18.65 -17.75 -10.82  -6.66  -2.76   3.21  10.47  11.18  11.58  13.59
         15.63  19.92  20.53  28.67  30.03  31.89  37.91  47.25  54.21  55.43
         61.76  68.89  68.92  99.98 107.46 149.38
  34  1 -18.67 -17.72 -10.83  -6.66  -2.75   3.24  10.45  11.16  11.60  13.61
         15.62  19.93  20.50  27.98  30.71  31.95  37.81  47.70  54.12  55.35
         62.15  68.90  68.96 100.04 107.53 149.30
  35  1 -18.87 -17.51 -10.82  -6.74  -2.65   3.24  10.28  11.09  11.71  13.71
         15.54  19.93  20.53  28.00  30.76  32.02  37.89  47.59  54.04  54.81
         62.55  68.81  68.92 100.30 107.83 149.03
  36  1 -19.13 -17.21 -10.80  -6.88  -2.47   3.25  10.02  10.97  11.87  13.89
         15.37  19.93  20.58  28.03  30.85  32.17  38.06  47.38  53.87  53.93
         63.18  68.54  68.95 100.68 108.51 148.52
  37  1 -19.42 -16.87 -10.76  -7.08  -2.22   3.27   9.71  10.81  12.03  14.15
         15.13  19.94  20.65  28.07  30.98  32.40  38.31  47.08  52.93  53.61
         63.89  68.15  69.00 100.98 109.73 147.78
  38  1 -19.71 -16.51 -10.72  -7.31  -1.92   3.30   9.36  10.62  12.17  14.47
         14.82  19.96  20.75  28.11  31.16  32.72  38.65  46.69  51.96  53.26
         64.57  67.64  69.08 101.02 111.55 146.83
  39  1 -19.99 -16.14 -10.66  -7.56  -1.57   3.32   9.00  10.43  12.28  14.45
         14.84  19.99  20.87  28.14  31.40  33.12  39.05  46.26  51.09  52.85
         65.21  67.02  69.17 100.80 113.92 145.72
  40  1 -20.27 -15.77 -10.59  -7.83  -1.20   3.36   8.64  10.23  12.34  14.04
         15.26  20.05  21.01  28.15  31.68  33.64  39.53  45.82  50.37  52.37
         65.79  66.31  69.30 100.35 116.69 144.48
  41  1 -20.54 -15.38 -10.51  -8.10  -0.80   3.40   8.27  10.02  12.35  13.60
         15.72  20.13  21.18  28.13  32.02  34.27  40.06  45.42  49.78  51.84
         65.50  66.30  69.45  99.72 119.72 143.14
  42  1 -20.81 -14.99 -10.42  -8.37  -0.38   3.44   7.90   9.83  12.29  13.14
         16.22  20.25  21.37  28.09  32.43  35.03  40.64  45.12  49.33  51.27
         64.61  66.76  69.63  98.94 122.85 141.77
  43  1 -21.06 -14.59 -10.32  -8.64   0.05   3.48   7.54   9.63  12.14  12.72
         16.78  20.40  21.58  28.02  32.90  35.95  41.26  44.97  48.99  50.67
         63.66  67.17  69.84  98.05 125.92 140.42
  44  1 -21.30 -14.19 -10.21  -8.91   0.49   3.53   7.20   9.45  11.81  12.41
         17.38  20.58  21.82  27.93  33.44  37.07  41.90  44.97  48.75  50.04
         62.64  67.53  70.08  97.06 128.78 139.16
  45  1 -21.53 -13.78 -10.09  -9.17   0.93   3.58   6.86   9.27  11.35  12.18
         18.03  20.79  22.08  27.82  34.07  38.42  42.55  45.16  48.60  49.41
         61.58  67.86  70.35  96.01 131.23 138.11
  46  1 -21.76 -13.38  -9.96  -9.42   1.38   3.64   6.54   9.10  10.84  11.97
         18.73  21.04  22.36  27.70  34.78  40.04  43.22  45.53  48.52  48.79
         60.49  68.16  70.65  94.90 132.96 137.50
  47  1 -21.97 -12.97  -9.82  -9.66   1.83   3.69   6.24   8.93  10.31  11.75
         19.48  21.31  22.67  27.58  35.59  42.01  43.90  46.08  48.17  48.52
         59.36  68.44  70.97  93.76 133.59 137.68
  48  1 -22.17 -12.56  -9.90  -9.67   2.28   3.74   5.96   8.78   9.77  11.51
         20.27  21.60  23.00  27.49  36.52  44.38  44.58  46.79  47.59  48.59
         58.22  68.71  71.30  92.60 133.41 138.38
  49  1 -22.36 -12.16 -10.12  -9.52   2.73   3.79   5.69   8.63   9.24  11.26
         21.08  21.89  23.35  27.44  37.57  45.26  46.84  47.42  47.62  48.79
         57.07  68.97  71.64  91.44 133.04 138.97
  50  1 -22.54 -11.76 -10.33  -9.36   3.17   3.83   5.45   8.50   8.72  11.00
         21.90  22.17  23.73  27.48  38.76  45.93  46.46  48.33  49.35  50.68
         55.93  69.24  71.99  90.30 132.75 139.26
  51  1 -22.71 -11.36 -10.53  -9.19   3.60   3.86   5.23   8.20   8.37  10.73
         22.41  22.71  24.12  27.65  40.10  45.99  46.56  48.67  50.53  54.62
         54.79  69.53  72.35  89.21 132.62 139.22
  52  1 -22.87 -10.98 -10.71  -9.02   3.88   4.02   5.04   7.70   8.25  10.47
         22.59  23.48  24.55  28.01  41.61  45.58  47.16  48.90  52.07  53.66
         59.13  69.85  72.70  88.20 132.65 138.91
  53  1 -23.02 -10.89 -10.60  -8.84   3.88   4.42   4.87   7.22   8.15  10.21
         22.68  24.21  25.00  28.62  43.27  45.22  47.77  49.09  52.55  53.87
         64.05  70.22  73.06  87.31 132.82 138.40
  54  1 -23.16 -11.05 -10.23  -8.67   3.87   4.73   4.80   6.76   8.05   9.96
         22.69  24.86  25.48  29.54  44.92  45.03  48.45  49.28  51.47  55.87
         69.18  70.65  73.44  86.59 133.08 137.79
  55  1 -23.28 -11.20  -9.89  -8.49   3.84   4.62   5.17   6.33   7.96   9.72
         22.63  25.44  25.98  30.82  44.69  46.62  49.26  49.69  50.43  58.01
         71.14  73.89  74.23  86.15 133.35 137.15
  56  1 -23.39 -11.33  -9.56  -8.31   3.80   4.53   5.50   5.93   7.89   9.50
         22.53  25.97  26.48  32.54  44.53  47.66  49.44  49.47  51.47  60.20
         71.64  74.46  78.89  86.14 133.50 136.54
  57  1 -23.50 -11.46  -9.25  -8.14   3.74   4.45   5.56   5.82   7.82   9.30
         22.38  26.45  26.94  34.82  44.43  48.23  48.49  49.56  54.07  62.34
         72.09  75.17  82.89  86.87 133.42 136.01
  58  1 -23.59 -11.57  -8.96  -7.97   3.69   4.36   5.23   6.10   7.76   9.11
         22.23  26.90  27.35  37.78  44.40  47.61  48.59  49.61  57.14  64.39
         72.45  75.87  86.06  88.67 132.98 135.55
  59  1 -23.67 -11.66  -8.71  -7.81   3.64   4.26   4.95   6.35   7.71   8.95
         22.07  27.33  27.70  41.52  44.40  46.81  48.83  49.64  60.48  66.47
         72.75  76.45  88.37  91.79 132.06 135.09
  60  1 -23.74 -11.74  -8.48  -7.67   3.59   4.14   4.74   6.58   7.67   8.81
         21.91  27.72  28.00  44.42  46.00  46.10  49.01  49.69  63.88  68.84
         73.13  77.00  89.91  96.15 130.56 134.56
  61  1 -23.79 -11.81  -8.29  -7.54   3.56   4.00   4.60   6.76   7.63   8.70
         21.78  28.05  28.25  44.42  45.55  48.94  49.48  51.32  67.30  71.16
         74.13  78.02  90.84 101.46 128.41 133.82
  62  1 -23.84 -11.87  -8.13  -7.43   3.53   3.85   4.50   6.92   7.60   8.61
         21.66  28.29  28.50  44.29  45.22  49.01  49.60  55.52  70.78  72.16
         76.77  80.71  91.33 107.26 125.69 132.71
  63  1 -23.87 -11.91  -8.01  -7.35   3.52   3.73   4.44   7.03   7.58   8.54
[...]
         68.46  73.53  98.15 102.96 134.61 143.35
1997  1 -19.83 -15.20 -12.68  -7.32  -1.35   6.36   9.09   9.32   9.89  14.55
         16.24  19.53  19.62  20.93  30.79  37.46  44.94  46.57  50.35  60.37
         68.46  73.91  99.27 103.00 136.66 145.21
1998  1 -19.86 -14.99 -12.89  -7.35  -1.27   6.77   8.99   9.21   9.56  14.54
         16.45  19.27  19.65  20.86  30.67  37.91  45.62  46.06  50.00  60.62
         68.45  74.21  99.92 103.03 137.13 147.68
1999  1 -19.88 -14.81 -13.08  -7.37  -1.20   7.14   8.79   9.14   9.36  14.52
         16.64  19.02  19.68  20.83  30.61  38.23  45.69  46.20  49.66  60.79
         68.42  74.42 100.27 103.04 137.13 149.67
2000  1 -19.90 -14.68 -13.20  -7.39  -1.16   7.40   8.57   9.10   9.31  14.50
         16.78  18.83  19.71  20.83  30.60  38.38  45.53  46.62  49.40  60.88
         68.36  74.55 100.41 103.04 137.09 150.78
2001  1 -19.90 -14.65 -13.24  -7.39  -1.15   7.38   8.54   9.09   9.37  14.48
         16.83  18.73  19.73  20.86  30.64  38.34  45.59  46.79  49.30  60.90
         68.26  74.59 100.40 103.01 137.14 150.93
2002  1 -19.89 -14.73 -13.17  -7.39  -1.16   7.10   8.68   9.12   9.52  14.47
         16.79  18.74  19.74  20.91  30.73  38.11  45.87  46.64  49.43  60.83
         68.14  74.53 100.27 102.92 137.28 150.11
2003  1 -19.86 -14.88 -13.02  -7.38  -1.19   6.71   8.84   9.19   9.78  14.46
         16.67  18.84  19.74  21.00  30.88  37.72  46.23  46.32  49.72  60.68
         67.99  74.39  99.99 102.76 137.37 148.37
2004  1 -19.83 -15.07 -12.82  -7.37  -1.24   6.30   8.96   9.29  10.11  14.44
         16.49  18.98  19.74  21.13  31.07  37.24  45.67  46.90  50.06  60.45
         67.83  74.16  99.50 102.49 136.96 146.06
2005  1 -19.79 -15.29 -12.61  -7.35  -1.32   5.88   9.06   9.42  10.47  14.42
         16.30  19.12  19.74  21.34  31.31  36.68  45.01  47.58  50.42  60.14
         67.67  73.85  98.64 102.12 134.99 144.21
2006  1 -19.74 -15.52 -12.39  -7.32  -1.41   5.47   9.16   9.57  10.83  14.40
         16.11  19.23  19.76  21.63  31.61  36.08  44.26  48.32  50.77  59.72
         67.52  73.48  97.11 101.68 130.84 143.72
2007  1 -19.68 -15.75 -12.17  -7.29  -1.51   5.08   9.26   9.74  11.16  14.36
         15.94  19.30  19.78  22.01  31.95  35.47  43.44  49.11  51.10  59.20
         67.40  73.05  94.50 101.24 125.57 144.10
2008  1 -19.61 -15.98 -11.95  -7.25  -1.62   4.71   9.37   9.92  11.45  14.30
         15.80  19.34  19.84  22.48  32.33  34.86  42.56  49.91  51.40  58.54
         67.31  72.57  90.48 100.82 120.54 144.84
2009  1 -19.53 -16.20 -11.75  -7.21  -1.74   4.37   9.48  10.10  11.69  14.23
         15.71  19.34  19.91  23.05  32.73  34.27  41.63  50.72  51.66  57.72
         67.26  72.07  85.18 100.42 116.57 145.72
2010  1 -19.44 -16.42 -11.57  -7.16  -1.85   4.06   9.60  10.29  11.87  14.15
         15.66  19.32  20.00  23.70  33.13  33.70  40.67  51.51  51.84  56.73
         67.24  71.56  79.33 100.03 113.78 146.62
2011  1 -19.34 -16.62 -11.41  -7.12  -1.96   3.79   9.73  10.47  11.98  14.05
         15.65  19.28  20.11  24.46  33.19  33.44  39.75  51.81  52.26  55.66
         67.24  71.06  73.89  99.66 111.87 147.48
2012  1 -19.24 -16.82 -11.27  -7.07  -2.07   3.57   9.86  10.64  12.03  13.94
         15.69  19.23  20.23  25.31  32.73  33.53  38.98  51.21  52.94  54.85
         67.24  69.50  70.61  99.31 110.55 148.25
2013  1 -19.14 -17.00 -11.16  -7.02  -2.16   3.38   9.99  10.79  12.04  13.84
         15.75  19.19  20.34  26.28  32.34  33.18  38.58  49.89  53.53  54.64
         66.28  67.33  70.22  98.99 109.63 148.91
2014  1 -19.03 -17.16 -11.08  -6.98  -2.24   3.25  10.10  10.92  12.01  13.73
         15.83  19.15  20.43  27.36  32.05  32.33  38.57  48.37  54.00  54.82
         64.22  67.33  69.93  98.72 108.98 149.42
2015  1 -18.93 -17.30 -11.03  -6.94  -2.31   3.17  10.21  11.01  11.96  13.65
         15.90  19.12  20.48  28.55  31.14  31.84  38.75  47.24  54.31  55.16
         62.94  67.34  69.77  98.52 108.54 149.78
2016  1 -18.84 -17.41 -11.02  -6.90  -2.36   3.14  10.29  11.07  11.92  13.58
         15.96  19.10  20.49  29.75  29.90  31.75  38.83  46.86  54.45  55.50
         62.34  67.33  69.76  98.39 108.28 149.98
2017  1 -18.77 -17.47 -11.04  -6.87  -2.40   3.16  10.34  11.08  11.89  13.55
         15.99  19.11  20.46  28.52  31.12  31.76  38.67  47.34  54.41  55.75
         62.49  67.31  69.90  98.35 108.16 150.00
2018  1 -18.77 -17.47 -11.04  -6.87  -2.40   3.16  10.34  11.08  11.89  13.55
         15.99  19.11  20.46  28.52  31.12  31.76  38.67  47.34  54.41  55.75
         62.49  67.31  69.90  98.35 108.16 150.00
2019  1 -18.83 -17.39 -11.10  -6.88  -2.37   3.24  10.28  11.01  11.91  13.60
         15.95  19.14  20.39  27.31  31.93  32.33  38.44  48.47  54.14  55.55
         63.75  67.28  70.13  98.50 108.37 149.75
2020  1 -18.90 -17.27 -11.18  -6.90  -2.32   3.37  10.20  10.89  11.94  13.67
         15.90  19.18  20.28  26.21  32.19  33.22  38.40  49.97  53.72  55.36
         65.97  67.25  70.48  98.75 108.75 149.32
2021  1 -18.99 -17.12 -11.30  -6.92  -2.26   3.55  10.10  10.75  11.96  13.76
         15.84  19.23  20.15  25.22  32.54  33.61  38.78  51.37  53.17  55.34
         67.17  69.42  70.94  99.08 109.34 148.73
2022  1 -19.08 -16.94 -11.44  -6.94  -2.19   3.78   9.99  10.58  11.96  13.86
         15.79  19.29  20.00  24.35  32.97  33.54  39.56  52.23  52.51  55.70
         67.12  71.46  74.15  99.48 110.23 147.99
2023  1 -19.17 -16.75 -11.61  -6.97  -2.10   4.05   9.87  10.39  11.90  13.96
         15.77  19.34  19.86  23.57  33.21  33.47  40.53  51.79  52.48  56.43
         67.07  72.03  79.95  99.97 111.60 147.12
2024  1 -19.25 -16.54 -11.80  -6.99  -2.01   4.35   9.76  10.19  11.79  14.05
         15.79  19.37  19.72  22.90  32.79  34.01  41.56  51.02  52.38  57.25
         67.04  72.62  86.13 100.52 113.78 146.16
2025  1 -19.33 -16.33 -12.01  -7.02  -1.92   4.69   9.64   9.99  11.62  14.14
         15.85  19.38  19.61  22.31  32.36  34.59  42.57  50.22  52.15  58.00
         67.03  73.19  91.63 101.17 117.19 145.14
2026  1 -19.40 -16.10 -12.23  -7.05  -1.82   5.06   9.53   9.80  11.39  14.20
         15.96  19.36  19.52  21.82  31.96  35.20  43.53  49.41  51.86  58.65
         67.05  73.74  95.53 101.91 121.97 144.15
2027  1 -19.47 -15.87 -12.46  -7.07  -1.73   5.45   9.43   9.61  11.12  14.26
         16.11  19.29  19.45  21.43  31.59  35.81  44.43  48.62  51.53  59.20
         67.11  74.24  97.83 102.65 127.41 143.32
2028  1 -19.52 -15.64 -12.69  -7.09  -1.64   5.86   9.32   9.43  10.81  14.30
         16.30  19.15  19.40  21.14  31.27  36.42  45.27  47.85  51.18  59.66
         67.20  74.69  99.09 103.26 132.26 142.93
2029  1 -19.57 -15.42 -12.92  -7.11  -1.57   6.28   9.21   9.28  10.48  14.34
         16.50  18.97  19.37  20.95  30.99  37.00  46.04  47.14  50.80  60.02
         67.31  75.06  99.85 103.68 135.33 143.50
2030  1 -19.60 -15.21 -13.13  -7.12  -1.51   6.70   9.08   9.16  10.16  14.36
         16.71  18.76  19.35  20.83  30.77  37.53  46.51  46.71  50.41  60.30
         67.44  75.35 100.33 103.91 136.37 145.10
2031  1 -19.63 -15.03 -13.31  -7.13  -1.47   7.12   8.92   9.07   9.90  14.38
         16.90  18.56  19.33  20.76  30.61  37.98  45.98  47.26  50.04  60.50
         67.58  75.56 100.66 104.02 136.39 146.74
2032  1 -19.64 -14.91 -13.43  -7.13  -1.46   7.48   8.72   9.01   9.72  14.40
         17.02  18.44  19.31  20.72  30.49  38.30  45.61  47.59  49.78  60.61
         67.70  75.67 100.88 104.05 136.20 147.75
2033  1 -19.65 -14.89 -13.45  -7.13  -1.46   7.66   8.62   9.00   9.63  14.42
         17.01  18.46  19.29  20.70  30.42  38.44  45.44  47.57  49.77  60.64
         67.81  75.68 101.01 104.04 136.09 148.00
2034  1 -19.64 -14.97 -13.37  -7.12  -1.49   7.51   8.78   9.03   9.62  14.43
         16.89  18.63  19.27  20.69  30.41  38.39  45.49  47.21  50.02  60.59
         67.90  75.59 101.03 104.01 136.13 147.47
2035  1 -19.63 -15.13 -13.20  -7.10  -1.54   7.17   9.04   9.09   9.71  14.44
         16.69  18.90  19.25  20.69  30.44  38.14  45.76  46.63  50.37  60.45
         67.96  75.40 100.91 103.97 136.25 146.19
2036  1 -19.60 -15.33 -12.99  -7.08  -1.61   6.77   9.19   9.24   9.92  14.45
         16.47  19.21  19.24  20.71  30.53  37.75  45.94  46.21  50.75  60.23
         68.01  75.12 100.61 103.92 136.16 144.38
2037  1 -19.56 -15.55 -12.76  -7.05  -1.70   6.35   9.32   9.35  10.24  14.45
         16.24  19.23  19.53  20.76  30.66  37.25  45.17  46.80  51.13  59.93
         68.06  74.76 100.03 103.86 135.02 142.74
2038  1 -19.52 -15.79 -12.52  -7.01  -1.80   5.93   9.44   9.48  10.57  14.43
         16.03  19.25  19.81  20.89  30.85  36.68  44.33  47.48  51.48  59.55
         68.10  74.31  99.04 103.75 131.80 142.26
2039  1 -19.46 -16.02 -12.28  -6.98  -1.92   5.53   9.53   9.66  10.89  14.40
         15.84  19.29  19.99  21.16  31.10  36.08  43.44  48.22  51.82  59.08
         68.15  73.80  97.43 103.57 126.91 142.73
2040  1 -19.39 -16.25 -12.04  -6.94  -2.04   5.14   9.62   9.85  11.17  14.35
         15.69  19.37  20.08  21.56  31.39  35.46  42.51  49.01  52.13  58.51
         68.22  73.22  94.82 103.30 121.47 143.59
2041  1 -19.32 -16.48 -11.82  -6.89  -2.16   4.77   9.72  10.05  11.40  14.28
         15.58  19.47  20.10  22.08  31.72  34.85  41.55  49.81  52.42  57.84
         68.30  72.61  90.82 102.93 116.60 144.58
2042  1 -19.23 -16.71 -11.61  -6.85  -2.28   4.43   9.83  10.26  11.56  14.19
         15.51  19.61  20.09  22.68  32.08  34.26  40.56  50.61  52.68  57.06
         68.39  71.97  85.43 102.47 113.05 145.59
2043  1 -19.14 -16.92 -11.41  -6.81  -2.39   4.13   9.94  10.46  11.67  14.08
         15.48  19.78  20.07  23.36  32.42  33.70  39.59  51.40  52.86  56.18
         68.48  71.33  79.40 101.96 110.78 146.54
2044  1 -19.04 -17.12 -11.24  -6.77  -2.49   3.86  10.06  10.64  11.71  13.97
         15.48  19.95  20.03  24.12  32.69  33.20  38.69  52.14  52.74  55.34
         68.56  70.70  73.71 101.44 109.40 147.39
2045  1 -18.94 -17.31 -11.09  -6.73  -2.58   3.63  10.18  10.82  11.71  13.86
         15.51  20.00  20.13  24.97  32.75  32.76  37.99  51.93  52.81  54.92
         68.34  69.33  70.12 100.95 108.55 148.10
2046  1 -18.84 -17.48 -10.97  -6.70  -2.66   3.45  10.29  10.96  11.68  13.76
         15.56  19.97  20.29  25.91  32.39  32.42  37.63  50.46  53.39  54.96
         65.52  68.84  69.62 100.54 108.01 148.66
2047  1 -18.74 -17.62 -10.89  -6.68  -2.71   3.32  10.38  11.08  11.63  13.67
         15.60  19.95  20.42  26.93  31.69  32.12  37.64  48.88  53.83  55.16
         63.36  68.88  69.22 100.24 107.69 149.06
2048  1 -18.67 -17.72 -10.83  -6.66  -2.75   3.24  10.45  11.15  11.59  13.61
         15.62  19.93  20.50  27.98  30.71  31.95  37.82  47.70  54.11  55.35
         62.15  68.91  68.97 100.04 107.52 149.30
2049  1 -18.65 -17.75 -10.82  -6.66  -2.76   3.21  10.47  11.18  11.58  13.59
         15.63  19.92  20.53  28.67  30.03  31.89  37.91  47.25  54.21  55.43
         61.76  68.89  68.92  99.98 107.46 149.38
2050  1 -18.67 -17.72 -10.83  -6.66  -2.75   3.24  10.45  11.15  11.59  13.61
         15.62  19.93  20.50  27.98  30.71  31.95  37.82  47.70  54.11  55.35
         62.15  68.91  68.97 100.04 107.52 149.30
2051  1 -18.74 -17.62 -10.89  -6.68  -2.71   3.32  10.38  11.08  11.63  13.67
         15.60  19.95  20.42  26.93  31.69  32.12  37.64  48.88  53.83  55.16
         63.36  68.88  69.22 100.24 107.69 149.06
2052  1 -18.84 -17.48 -10.97  -6.70  -2.66   3.45  10.29  10.96  11.68  13.76
         15.56  19.97  20.29  25.91  32.39  32.42  37.63  50.46  53.39  54.96
         65.52  68.84  69.62 100.54 108.01 148.66
2053  1 -18.94 -17.31 -11.09  -6.73  -2.58   3.63  10.18  10.82  11.71  13.86
         15.51  20.00  20.13  24.97  32.75  32.76  37.99  51.93  52.81  54.92
         68.34  69.33  70.12 100.95 108.55 148.10
2054  1 -19.04 -17.12 -11.24  -6.77  -2.49   3.86  10.06  10.64  11.71  13.97
         15.48  19.95  20.03  24.12  32.69  33.20  38.69  52.14  52.74  55.34
         68.56  70.70  73.71 101.44 109.40 147.39
2055  1 -19.14 -16.92 -11.41  -6.81  -2.39   4.13   9.94  10.46  11.67  14.08
         15.48  19.78  20.07  23.36  32.42  33.70  39.59  51.40  52.86  56.18
         68.48  71.33  79.40 101.96 110.78 146.54
2056  1 -19.23 -16.71 -11.61  -6.85  -2.28   4.43   9.83  10.26  11.56  14.19
         15.51  19.61  20.09  22.68  32.08  34.26  40.56  50.61  52.68  57.06
         68.39  71.97  85.43 102.47 113.05 145.59
2057  1 -19.32 -16.48 -11.82  -6.89  -2.16   4.77   9.72  10.05  11.40  14.28
         15.58  19.47  20.10  22.08  31.72  34.85  41.55  49.81  52.42  57.84
         68.30  72.61  90.82 102.93 116.60 144.58
2058  1 -19.39 -16.25 -12.04  -6.94  -2.04   5.14   9.62   9.85  11.17  14.35
         15.69  19.37  20.08  21.56  31.39  35.46  42.51  49.01  52.13  58.51
         68.22  73.22  94.82 103.30 121.47 143.59
2059  1 -19.46 -16.02 -12.28  -6.98  -1.92   5.53   9.53   9.66  10.89  14.40
         15.84  19.29  19.99  21.16  31.10  36.08  43.44  48.22  51.82  59.08
         68.15  73.80  97.43 103.57 126.91 142.73
2060  1 -19.52 -15.79 -12.52  -7.01  -1.80   5.93   9.44   9.48  10.57  14.43
         16.03  19.25  19.81  20.89  30.85  36.68  44.33  47.48  51.48  59.55
         68.10  74.31  99.04 103.75 131.80 142.26
2061  1 -19.56 -15.55 -12.76  -7.05  -1.70   6.35   9.32   9.35  10.24  14.45
         16.24  19.23  19.53  20.76  30.66  37.25  45.17  46.80  51.13  59.93
         68.06  74.76 100.03 103.86 135.02 142.74
2062  1 -19.60 -15.33 -12.99  -7.08  -1.61   6.77   9.19   9.24   9.92  14.45
         16.47  19.21  19.24  20.71  30.53  37.75  45.94  46.21  50.75  60.23
         68.01  75.12 100.61 103.92 136.16 144.38
2063  1 -19.63 -15.13 -13.20  -7.10  -1.54   7.17   9.04   9.09   9.71  14.44
         16.69  18.90  19.25  20.69  30.44  38.14  45.76  46.63  50.37  60.45
         67.96  75.40 100.91 103.97 136.25 146.19
2064  1 -19.64 -14.97 -13.37  -7.12  -1.49   7.51   8.78   9.03   9.62  14.43
         16.89  18.63  19.27  20.69  30.41  38.39  45.49  47.21  50.02  60.59
         67.90  75.59 101.03 104.01 136.13 147.47
2065  1 -19.65 -14.89 -13.45  -7.13  -1.46   7.66   8.62   9.00   9.63  14.42
         17.01  18.46  19.29  20.70  30.42  38.44  45.44  47.57  49.77  60.64
         67.81  75.68 101.01 104.04 136.09 148.00
2066  1 -19.64 -14.91 -13.43  -7.13  -1.46   7.48   8.72   9.01   9.72  14.40
         17.02  18.44  19.31  20.72  30.49  38.30  45.61  47.59  49.78  60.61
         67.70  75.67 100.88 104.05 136.20 147.75
2067  1 -19.63 -15.03 -13.31  -7.13  -1.47   7.12   8.92   9.07   9.90  14.38
         16.90  18.56  19.33  20.76  30.61  37.98  45.98  47.26  50.04  60.50
         67.58  75.56 100.66 104.02 136.39 146.74
2068  1 -19.60 -15.21 -13.13  -7.12  -1.51   6.70   9.08   9.16  10.16  14.36
         16.71  18.76  19.35  20.83  30.77  37.53  46.51  46.71  50.41  60.30
         67.44  75.35 100.33 103.91 136.37 145.10
2069  1 -19.57 -15.42 -12.92  -7.11  -1.57   6.28   9.21   9.28  10.48  14.34
         16.50  18.97  19.37  20.95  30.99  37.00  46.04  47.14  50.80  60.02
         67.31  75.06  99.85 103.68 135.33 143.50
2070  1 -19.52 -15.64 -12.69  -7.09  -1.64   5.86   9.32   9.43  10.81  14.30
         16.30  19.15  19.40  21.14  31.27  36.42  45.27  47.85  51.18  59.66
         67.20  74.69  99.09 103.26 132.26 142.93
2071  1 -19.47 -15.87 -12.46  -7.07  -1.73   5.45   9.43   9.61  11.12  14.26
         16.11  19.29  19.45  21.43  31.59  35.81  44.43  48.62  51.53  59.20
         67.11  74.24  97.83 102.65 127.41 143.32
2072  1 -19.40 -16.10 -12.23  -7.05  -1.82   5.06   9.53   9.80  11.39  14.20
         15.96  19.36  19.52  21.82  31.96  35.20  43.53  49.41  51.86  58.65
         67.05  73.74  95.53 101.91 121.97 144.15
2073  1 -19.33 -16.33 -12.01  -7.02  -1.92   4.69   9.64   9.99  11.62  14.14
         15.85  19.38  19.61  22.31  32.36  34.59  42.57  50.22  52.15  58.00
         67.03  73.19  91.63 101.17 117.19 145.14
2074  1 -19.25 -16.54 -11.80  -6.99  -2.01   4.35   9.76  10.19  11.79  14.05
         15.79  19.37  19.72  22.90  32.79  34.01  41.56  51.02  52.38  57.25
         67.04  72.62  86.13 100.52 113.78 146.16
2075  1 -19.17 -16.75 -11.61  -6.97  -2.10   4.05   9.87  10.39  11.90  13.96
         15.77  19.34  19.86  23.57  33.21  33.47  40.53  51.79  52.48  56.43
         67.07  72.03  79.95  99.97 111.60 147.12
2076  1 -19.08 -16.94 -11.44  -6.94  -2.19   3.78   9.99  10.58  11.96  13.86
         15.79  19.29  20.00  24.35  32.97  33.54  39.56  52.23  52.51  55.70
         67.12  71.46  74.15  99.48 110.23 147.99
2077  1 -18.99 -17.12 -11.30  -6.92  -2.26   3.55  10.10  10.75  11.96  13.76
         15.84  19.23  20.15  25.22  32.54  33.61  38.78  51.37  53.17  55.34
         67.17  69.42  70.94  99.08 109.34 148.73
2078  1 -18.90 -17.27 -11.18  -6.90  -2.32   3.37  10.20  10.89  11.94  13.67
         15.90  19.18  20.28  26.21  32.19  33.22  38.40  49.97  53.72  55.36
         65.97  67.25  70.48  98.75 108.75 149.32
2079  1 -18.83 -17.39 -11.10  -6.88  -2.37   3.24  10.28  11.01  11.91  13.60
         15.95  19.14  20.39  27.31  31.93  32.33  38.44  48.47  54.14  55.55
         63.75  67.28  70.13  98.50 108.37 149.75
2080  1 -18.77 -17.47 -11.04  -6.87  -2.40   3.16  10.34  11.08  11.89  13.55
         15.99  19.11  20.46  28.52  31.12  31.76  38.67  47.34  54.41  55.75
         62.49  67.31  69.90  98.35 108.16 150.00
2081  1 -18.76 -17.50 -11.03  -6.87  -2.41   3.13  10.36  11.10  11.87  13.53
         16.00  19.10  20.48  29.76  29.87  31.71  38.79  46.91  54.50  55.84
         62.08  67.32  69.82  98.30 108.09 150.09
siesta: Fermi energy =      -4.364657 eV
siesta: PDOS info: 
siesta: e1, e2, sigma, nhist:    -6.50 eV   -2.50 eV    0.05 eV    700

siesta: Program's energy decomposition (eV):
siesta: Ebs     =      -108.454561
siesta: Eions   =       511.194752
siesta: Ena     =       112.045505
siesta: Ekin    =       217.538038
siesta: Enl     =       -21.978225
siesta: Eso     =         0.000000
siesta: Eldau   =         0.000000
siesta: DEna    =        -9.729369
siesta: DUscf   =         0.854777
siesta: DUext   =         0.000000
siesta: Enegf   =         0.000000
siesta: Exc     =      -112.203937
siesta: eta*DQ  =         0.000000
siesta: Emadel  =         0.000000
siesta: Emeta   =         0.000000
siesta: Emolmec =         0.000000
siesta: Ekinion =         0.000000
siesta: Eharris =      -324.667963
siesta: Etot    =      -324.667963
siesta: FreeEng =      -324.667987

siesta: Final energy (eV):
siesta:  Band Struct. =    -108.454561
siesta:       Kinetic =     217.538038
siesta:       Hartree =    4228.232918
siesta:       Eldau   =       0.000000
siesta:       Eso     =       0.000000
siesta:    Ext. field =       0.000000
siesta:       Enegf   =       0.000000
siesta:   Exch.-corr. =    -112.203937
siesta:  Ion-electron =   -8656.243146
siesta:       Ion-ion =    3998.008164
siesta:       Ekinion =       0.000000
siesta:         Total =    -324.667963
siesta:         Fermi =      -4.364657

siesta: Atomic forces (eV/Ang):
siesta:      1    1.153570    0.000000   -0.000000
siesta:      2   -1.145768   -0.000000   -0.000000
siesta: ----------------------------------------
siesta:    Tot    0.007802   -0.000000   -0.000000

siesta: Stress tensor (static) (eV/Ang**3):
siesta:    -0.004743    0.000000   -0.000000
siesta:    -0.000000   -0.007203   -0.000000
siesta:    -0.000000    0.000000   -0.000002

siesta: Cell volume =        257.849175 Ang**3

siesta: Pressure (static):
siesta:                Solid            Molecule  Units
siesta:           0.00004338          0.00006669  Ry/Bohr**3
siesta:           0.00398273          0.00612290  eV/Ang**3
siesta:           6.38110719          9.81007426  kBar
(Free)E+ p_basis*V_orbitals  =        -323.570526
(Free)Eharris+ p_basis*V_orbitals  =        -323.570526

siesta: Electric dipole (a.u.)  =    0.000000    0.000000   -0.000000
siesta: Electric dipole (Debye) =    0.000000    0.000000   -0.000000
>> End of run:  19-NOV-2020  11:57:04
Job completed
