
     Program PWSCF v.6.4.1 starts on 13Jan2021 at 23: 2:17 

     This program is part of the open-source Quantum ESPRESSO suite
     for quantum simulation of materials; please cite
         "P. Giannozzi et al., J. Phys.:Condens. Matter 21 395502 (2009);
         "P. Giannozzi et al., J. Phys.:Condens. Matter 29 465901 (2017);
          URL http://www.quantum-espresso.org", 
     in publications or presentations arising from this work. More details at
     http://www.quantum-espresso.org/quote

     Parallel version (MPI), running on    16 processors

     MPI processes distributed on     1 nodes
     R & G space division:  proc/nbgrp/npool/nimage =      16
     Waiting for input...
     Reading input from standard input
Warning: card &IONS ignored
Warning: card     ION_DYNAMICS="BFGS" ignored
Warning: card / ignored

     Current dimensions of program PWSCF are:
     Max number of different atomic species (ntypx) = 10
     Max number of k-points (npk) =  40000
     Max angular momentum in pseudopotentials (lmaxx) =  3
               file N.pbe-n-kjpaw_psl.1.0.0.UPF: wavefunction(s)  2S renormalized

     Subspace diagonalization in iterative solution of the eigenvalue problem:
     one sub-group per band group will be used
     scalapack distributed-memory algorithm (size of sub-group:  2*  2 procs)

 
     Parallelization info
     --------------------
     sticks:   dense  smooth     PW     G-vecs:    dense   smooth      PW
     Min         173     173     42                59061    59061    7348
     Max         174     174     43                59086    59086    7389
     Sum        2773    2773    685               945091   945091  117903
 


     bravais-lattice index     =            4
     lattice parameter (alat)  =       4.7319  a.u.
     unit-cell volume          =     733.0516 (a.u.)^3
     number of atoms/cell      =            2
     number of atomic types    =            2
     number of electrons       =         8.00
     number of Kohn-Sham states=            4
     kinetic-energy cutoff     =     450.0000  Ry
     charge density cutoff     =    1800.0000  Ry
     convergence threshold     =      1.0E-08
     mixing beta               =       0.7000
     number of iterations used =            8  plain     mixing
     Exchange-correlation      = SLA PW PBX PBC ( 1  4  3  4 0 0)
     Using LIBXC version       =    4   3   4

     celldm(1)=   4.731874  celldm(2)=   0.000000  celldm(3)=   7.989220
     celldm(4)=   0.000000  celldm(5)=   0.000000  celldm(6)=   0.000000

     crystal axes: (cart. coord. in units of alat)
               a(1) = (   1.000000   0.000000   0.000000 )  
               a(2) = (  -0.500000   0.866025   0.000000 )  
               a(3) = (   0.000000   0.000000   7.989220 )  

     reciprocal axes: (cart. coord. in units 2 pi/alat)
               b(1) = (  1.000000  0.577350  0.000000 )  
               b(2) = (  0.000000  1.154701  0.000000 )  
               b(3) = (  0.000000  0.000000  0.125169 )  


     PseudoPot. # 1 for B  read from file:
     ./pseudo/B.pbe-n-kjpaw_psl.1.0.0.UPF
     MD5 check sum: 8c825a5969375aca5c2c6ad5945b3059
     Pseudo is Projector augmented-wave + core cor, Zval =  3.0
     Generated using "atomic" code by A. Dal Corso v.6.3
     Shape of augmentation charge: PSQ
     Using radial grid of 1059 points,  4 beta functions with: 
                l(1) =   0
                l(2) =   0
                l(3) =   1
                l(4) =   1
     Q(r) pseudized with 0 coefficients 


     PseudoPot. # 2 for N  read from file:
     ./pseudo/N.pbe-n-kjpaw_psl.1.0.0.UPF
     MD5 check sum: 14c48229446f9f2d411169a3abcbc3fa
     Pseudo is Projector augmented-wave + core cor, Zval =  5.0
     Generated using "atomic" code by A. Dal Corso v.6.3
     Shape of augmentation charge: PSQ
     Using radial grid of 1085 points,  4 beta functions with: 
                l(1) =   0
                l(2) =   0
                l(3) =   1
                l(4) =   1
     Q(r) pseudized with 0 coefficients 


     atomic species   valence    mass     pseudopotential
        B              3.00    10.00000     B ( 1.00)
        N              5.00    14.00000     N ( 1.00)

     12 Sym. Ops. (no inversion) found


                                    s                        frac. trans.

      isym =  1     identity                                     

 cryst.   s( 1) = (     1          0          0      )
                  (     0          1          0      )
                  (     0          0          1      )

 cart.    s( 1) = (  1.0000000  0.0000000  0.0000000 )
                  (  0.0000000  1.0000000  0.0000000 )
                  (  0.0000000  0.0000000  1.0000000 )


      isym =  2     180 deg rotation - cart. axis [0,1,0]        

 cryst.   s( 2) = (    -1          0          0      )
                  (     1          1          0      )
                  (     0          0         -1      )

 cart.    s( 2) = ( -1.0000000  0.0000000  0.0000000 )
                  (  0.0000000  1.0000000  0.0000000 )
                  (  0.0000000  0.0000000 -1.0000000 )


      isym =  3     120 deg rotation - cryst. axis [0,0,1]       

 cryst.   s( 3) = (     0          1          0      )
                  (    -1         -1          0      )
                  (     0          0          1      )

 cart.    s( 3) = ( -0.5000000 -0.8660254  0.0000000 )
                  (  0.8660254 -0.5000000  0.0000000 )
                  (  0.0000000  0.0000000  1.0000000 )


      isym =  4     120 deg rotation - cryst. axis [0,0,-1]      

 cryst.   s( 4) = (    -1         -1          0      )
                  (     1          0          0      )
                  (     0          0          1      )

 cart.    s( 4) = ( -0.5000000  0.8660254  0.0000000 )
                  ( -0.8660254 -0.5000000  0.0000000 )
                  (  0.0000000  0.0000000  1.0000000 )


      isym =  5     180 deg rotation - cryst. axis [1,-1,0]      

 cryst.   s( 5) = (     0         -1          0      )
                  (    -1          0          0      )
                  (     0          0         -1      )

 cart.    s( 5) = (  0.5000000 -0.8660254  0.0000000 )
                  ( -0.8660254 -0.5000000  0.0000000 )
                  (  0.0000000  0.0000000 -1.0000000 )


      isym =  6     180 deg rotation - cryst. axis [2,1,0]       

 cryst.   s( 6) = (     1          1          0      )
                  (     0         -1          0      )
                  (     0          0         -1      )

 cart.    s( 6) = (  0.5000000  0.8660254  0.0000000 )
                  (  0.8660254 -0.5000000  0.0000000 )
                  (  0.0000000  0.0000000 -1.0000000 )


      isym =  7     inv. 180 deg rotation - cart. axis [0,0,1]   

 cryst.   s( 7) = (     1          0          0      )
                  (     0          1          0      )
                  (     0          0         -1      )

 cart.    s( 7) = (  1.0000000  0.0000000  0.0000000 )
                  (  0.0000000  1.0000000  0.0000000 )
                  (  0.0000000  0.0000000 -1.0000000 )


      isym =  8     inv. 180 deg rotation - cart. axis [1,0,0]   

 cryst.   s( 8) = (    -1          0          0      )
                  (     1          1          0      )
                  (     0          0          1      )

 cart.    s( 8) = ( -1.0000000  0.0000000  0.0000000 )
                  (  0.0000000  1.0000000  0.0000000 )
                  (  0.0000000  0.0000000  1.0000000 )


      isym =  9     inv.  60 deg rotation - cryst. axis [0,0,1]  

 cryst.   s( 9) = (    -1         -1          0      )
                  (     1          0          0      )
                  (     0          0         -1      )

 cart.    s( 9) = ( -0.5000000  0.8660254  0.0000000 )
                  ( -0.8660254 -0.5000000  0.0000000 )
                  (  0.0000000  0.0000000 -1.0000000 )


      isym = 10     inv.  60 deg rotation - cryst. axis [0,0,-1] 

 cryst.   s(10) = (     0          1          0      )
                  (    -1         -1          0      )
                  (     0          0         -1      )

 cart.    s(10) = ( -0.5000000 -0.8660254  0.0000000 )
                  (  0.8660254 -0.5000000  0.0000000 )
                  (  0.0000000  0.0000000 -1.0000000 )


      isym = 11     inv. 180 deg rotation - cryst. axis [0,1,0]  

 cryst.   s(11) = (     1          1          0      )
                  (     0         -1          0      )
                  (     0          0          1      )

 cart.    s(11) = (  0.5000000  0.8660254  0.0000000 )
                  (  0.8660254 -0.5000000  0.0000000 )
                  (  0.0000000  0.0000000  1.0000000 )


      isym = 12     inv. 180 deg rotation - cryst. axis [1,1,0]  

 cryst.   s(12) = (     0         -1          0      )
                  (    -1          0          0      )
                  (     0          0          1      )

 cart.    s(12) = (  0.5000000 -0.8660254  0.0000000 )
                  ( -0.8660254 -0.5000000  0.0000000 )
                  (  0.0000000  0.0000000  1.0000000 )


     point group D_3h (-62m)
     there are  6 classes
     the character table:

       E     2C3   3C2   s_h   2S3   3s_v 
A'_1   1.00  1.00  1.00  1.00  1.00  1.00
A'_2   1.00  1.00 -1.00  1.00  1.00 -1.00
E'     2.00 -1.00  0.00  2.00 -1.00  0.00
A''1   1.00  1.00  1.00 -1.00 -1.00 -1.00
A''2   1.00  1.00 -1.00 -1.00 -1.00  1.00
E''    2.00 -1.00  0.00 -2.00  1.00  0.00

     the symmetry operations in each class and the name of the first element:

     E        1
          identity                                               
     2C3      3    4
          120 deg rotation - cryst. axis [0,0,1]                 
     3C2      2    6    5
          180 deg rotation - cart. axis [0,1,0]                  
     s_h      7
          inv. 180 deg rotation - cart. axis [0,0,1]             
     2S3      9   10
          inv.  60 deg rotation - cryst. axis [0,0,1]            
     3s_v     8   11   12
          inv. 180 deg rotation - cart. axis [1,0,0]             

   Cartesian axes

     site n.     atom                  positions (alat units)
         1           B   tau(   1) = (   0.5000000   0.2886751   0.0000000  )
         2           N   tau(   2) = (  -0.0000000   0.5773503   0.0000000  )

   Crystallographic axes

     site n.     atom                  positions (cryst. coord.)
         1           B   tau(   1) = (  0.6666667  0.3333333  0.0000000  )
         2           N   tau(   2) = (  0.3333333  0.6666667  0.0000000  )

     number of k points=     1
                       cart. coord. in units 2pi/alat
        k(    1) = (   0.0000000   0.0000000   0.0000000), wk =   2.0000000

                       cryst. coord.
        k(    1) = (   0.0000000   0.0000000   0.0000000), wk =   2.0000000

     Dense  grid:   945091 G-vectors     FFT dimensions: (  64,  64, 512)

     Dynamical RAM for                 wfc:       0.45 MB

     Dynamical RAM for     wfc (w. buffer):       0.45 MB

     Dynamical RAM for           str. fact:       1.80 MB

     Dynamical RAM for           local pot:       0.00 MB

     Dynamical RAM for          nlocal pot:       1.80 MB

     Dynamical RAM for                qrad:       1.46 MB

     Dynamical RAM for          rho,v,vnew:       5.70 MB

     Dynamical RAM for               rhoin:       1.90 MB

     Dynamical RAM for            rho*nmix:      14.42 MB

     Dynamical RAM for           G-vectors:       3.83 MB

     Dynamical RAM for          h,s,v(r/c):       0.00 MB

     Dynamical RAM for          <psi|beta>:       0.00 MB

     Dynamical RAM for                 psi:       1.80 MB

     Dynamical RAM for                hpsi:       1.80 MB

     Dynamical RAM for                spsi:       1.80 MB

     Dynamical RAM for      wfcinit/wfcrot:       1.80 MB

     Dynamical RAM for           addusdens:      39.66 MB

     Estimated static dynamical RAM per process >      39.08 MB

     Estimated max dynamical RAM per process >      78.75 MB

     Estimated total dynamical RAM >       1.23 GB

     Initial potential from superposition of free atoms

     starting charge    7.99971, renormalised to    8.00000

     negative rho (up, down):  1.604E-04 0.000E+00
     Starting wfcs are    8 randomized atomic wfcs
     Checking if some PAW data can be deallocated... 
       PAW data deallocated on    8 nodes for type:  1
       PAW data deallocated on    8 nodes for type:  2

     total cpu time spent up to now is        4.6 secs

     Self-consistent Calculation

     iteration #  1     ecut=   450.00 Ry     beta= 0.70
     Davidson diagonalization with overlap
     ethr =  1.00E-02,  avg # of iterations =  2.0

     negative rho (up, down):  3.956E-05 0.000E+00

     total cpu time spent up to now is        5.8 secs

     total energy              =     -39.20684077 Ry
     Harris-Foulkes estimate   =     -39.61172578 Ry
     estimated scf accuracy    <       0.62390170 Ry

     iteration #  2     ecut=   450.00 Ry     beta= 0.70
     Davidson diagonalization with overlap
     ethr =  7.80E-03,  avg # of iterations =  2.0

     negative rho (up, down):  2.323E-05 0.000E+00

     total cpu time spent up to now is        6.9 secs

     total energy              =     -39.35688510 Ry
     Harris-Foulkes estimate   =     -39.51650978 Ry
     estimated scf accuracy    <       0.31121890 Ry

     iteration #  3     ecut=   450.00 Ry     beta= 0.70
     Davidson diagonalization with overlap
     ethr =  3.89E-03,  avg # of iterations =  2.0

     negative rho (up, down):  7.312E-06 0.000E+00

     total cpu time spent up to now is        7.9 secs

     total energy              =     -39.41962633 Ry
     Harris-Foulkes estimate   =     -39.41984090 Ry
     estimated scf accuracy    <       0.00422737 Ry

     iteration #  4     ecut=   450.00 Ry     beta= 0.70
     Davidson diagonalization with overlap
     ethr =  5.28E-05,  avg # of iterations =  3.0

     negative rho (up, down):  7.979E-06 0.000E+00

     total cpu time spent up to now is        9.0 secs

     total energy              =     -39.42171746 Ry
     Harris-Foulkes estimate   =     -39.42218216 Ry
     estimated scf accuracy    <       0.00123585 Ry

     iteration #  5     ecut=   450.00 Ry     beta= 0.70
     Davidson diagonalization with overlap
     ethr =  1.54E-05,  avg # of iterations =  1.0

     negative rho (up, down):  7.945E-06 0.000E+00

     total cpu time spent up to now is       10.0 secs

     total energy              =     -39.42176499 Ry
     Harris-Foulkes estimate   =     -39.42180005 Ry
     estimated scf accuracy    <       0.00018583 Ry

     iteration #  6     ecut=   450.00 Ry     beta= 0.70
     Davidson diagonalization with overlap
     ethr =  2.32E-06,  avg # of iterations =  2.0

     negative rho (up, down):  8.154E-06 0.000E+00

     total cpu time spent up to now is       11.0 secs

     total energy              =     -39.42180991 Ry
     Harris-Foulkes estimate   =     -39.42181632 Ry
     estimated scf accuracy    <       0.00001291 Ry

     iteration #  7     ecut=   450.00 Ry     beta= 0.70
     Davidson diagonalization with overlap
     ethr =  1.61E-07,  avg # of iterations =  2.0

     negative rho (up, down):  8.178E-06 0.000E+00

     total cpu time spent up to now is       12.1 secs

     total energy              =     -39.42181257 Ry
     Harris-Foulkes estimate   =     -39.42181256 Ry
     estimated scf accuracy    <       0.00000005 Ry

     iteration #  8     ecut=   450.00 Ry     beta= 0.70
     Davidson diagonalization with overlap
     ethr =  5.64E-10,  avg # of iterations =  4.0

     negative rho (up, down):  8.198E-06 0.000E+00

     total cpu time spent up to now is       13.3 secs

     total energy              =     -39.42181266 Ry
     Harris-Foulkes estimate   =     -39.42181267 Ry
     estimated scf accuracy    <       0.00000003 Ry

     iteration #  9     ecut=   450.00 Ry     beta= 0.70
     Davidson diagonalization with overlap
     ethr =  4.36E-10,  avg # of iterations =  2.0

     negative rho (up, down):  8.207E-06 0.000E+00

     total cpu time spent up to now is       14.2 secs

     End of self-consistent calculation

          k = 0.0000 0.0000 0.0000 (117903 PWs)   bands (ev):

   -21.8742  -9.7207  -5.3056  -5.3056

     occupation numbers 
     1.0000   1.0000   1.0000   1.0000

     highest occupied level (ev):    -5.3056

!    total energy              =     -39.42181266 Ry
     Harris-Foulkes estimate   =     -39.42181266 Ry
     estimated scf accuracy    <          4.1E-09 Ry

     total all-electron energy =      -158.959958 Ry

     The total energy is the sum of the following terms:

     one-electron contribution =    -219.94130400 Ry
     hartree contribution      =     111.97450114 Ry
     xc contribution           =      -8.93275233 Ry
     ewald contribution        =      90.60955781 Ry
     one-center paw contrib.   =     -13.13181528 Ry
      -> PAW hartree energy AE =       2.92155054 Ry
      -> PAW hartree energy PS =      -2.93302969 Ry
      -> PAW xc energy AE      =      -7.52750004 Ry
      -> PAW xc energy PS      =       2.34834530 Ry
      -> total E_H with PAW    =     111.96302199 Ry
      -> total E_XC with PAW   =     -14.11190707 Ry

     convergence has been achieved in   9 iterations

     Writing output data file hBN.save/
 
     init_run     :      3.53s CPU      3.68s WALL (       1 calls)
     electrons    :      8.74s CPU      9.74s WALL (       1 calls)

     Called by init_run:
     wfcinit      :      0.09s CPU      0.10s WALL (       1 calls)
     wfcinit:atom :      0.00s CPU      0.00s WALL (       1 calls)
     wfcinit:wfcr :      0.08s CPU      0.09s WALL (       1 calls)
     potinit      :      1.38s CPU      1.41s WALL (       1 calls)
     hinit0       :      1.64s CPU      1.66s WALL (       1 calls)

     Called by electrons:
     c_bands      :      1.11s CPU      1.19s WALL (       9 calls)
     sum_band     :      1.27s CPU      1.53s WALL (       9 calls)
     v_of_rho     :      5.42s CPU      5.50s WALL (      10 calls)
     v_h          :      0.10s CPU      0.11s WALL (      10 calls)
     v_xc         :      5.32s CPU      5.39s WALL (      10 calls)
     newd         :      0.87s CPU      1.32s WALL (      10 calls)
     PAW_pot      :      0.42s CPU      0.44s WALL (      10 calls)
     mix_rho      :      0.25s CPU      0.32s WALL (       9 calls)

     Called by c_bands:
     init_us_2    :      0.03s CPU      0.04s WALL (      19 calls)
     cegterg      :      1.04s CPU      1.11s WALL (       9 calls)

     Called by sum_band:
     sum_band:bec :      0.00s CPU      0.00s WALL (       9 calls)
     addusdens    :      0.80s CPU      1.01s WALL (       9 calls)

     Called by *egterg:
     h_psi        :      1.03s CPU      1.07s WALL (      30 calls)
     s_psi        :      0.01s CPU      0.01s WALL (      30 calls)
     g_psi        :      0.01s CPU      0.01s WALL (      20 calls)
     cdiaghg      :      0.02s CPU      0.02s WALL (      29 calls)
     cegterg:over :      0.02s CPU      0.02s WALL (      20 calls)
     cegterg:upda :      0.02s CPU      0.03s WALL (      20 calls)
     cegterg:last :      0.01s CPU      0.01s WALL (      10 calls)
     cdiaghg:chol :      0.00s CPU      0.00s WALL (      29 calls)
     cdiaghg:inve :      0.00s CPU      0.00s WALL (      29 calls)
     cdiaghg:para :      0.00s CPU      0.00s WALL (      58 calls)

     Called by h_psi:
     h_psi:pot    :      1.02s CPU      1.07s WALL (      30 calls)
     h_psi:calbec :      0.02s CPU      0.03s WALL (      30 calls)
     vloc_psi     :      0.99s CPU      1.03s WALL (      30 calls)
     add_vuspsi   :      0.01s CPU      0.01s WALL (      30 calls)

     General routines
     calbec       :      0.03s CPU      0.03s WALL (      39 calls)
     fft          :      0.87s CPU      0.95s WALL (     110 calls)
     ffts         :      0.06s CPU      0.07s WALL (       9 calls)
     fftw         :      1.00s CPU      1.04s WALL (     272 calls)
 
     Parallel routines
     fft_scatt_xy :      0.21s CPU      0.21s WALL (     391 calls)
     fft_scatt_yz :      0.43s CPU      0.52s WALL (     391 calls)

     PAW routines
     PAW_pot      :      0.42s CPU      0.44s WALL (      10 calls)
     PAW_symme    :      0.04s CPU      0.04s WALL (      19 calls)
 
     PWSCF        :     13.23s CPU     14.61s WALL

 
   This run was terminated on:  23: 2:31  13Jan2021            

=------------------------------------------------------------------------------=
   JOB DONE.
=------------------------------------------------------------------------------=
